File written on  2Dec2023 at 10:40:35 

calc_only_A  :  F

begin real_lattice
   4.4580000   0.0000000   0.0000000
  -2.2290001   3.8607414   0.0000000
   0.0000000   0.0000000   5.9250000
end real_lattice

begin recip_lattice
   1.4094180   0.8137278   0.0000000
   0.0000000   1.6274556   0.0000000
   0.0000000   0.0000000   1.0604532
end recip_lattice

begin kpoints
  3375
    0.00000000    0.00000000    0.00000000
    0.00000000    0.00000000    0.06666667
    0.00000000    0.00000000    0.13333333
    0.00000000    0.00000000    0.20000000
    0.00000000    0.00000000    0.26666667
    0.00000000    0.00000000    0.33333333
    0.00000000    0.00000000    0.40000000
    0.00000000    0.00000000    0.46666667
    0.00000000    0.00000000    0.53333333
    0.00000000    0.00000000    0.60000000
    0.00000000    0.00000000    0.66666667
    0.00000000    0.00000000    0.73333333
    0.00000000    0.00000000    0.80000000
    0.00000000    0.00000000    0.86666667
    0.00000000    0.00000000    0.93333333
    0.00000000    0.06666667    0.00000000
    0.00000000    0.06666667    0.06666667
    0.00000000    0.06666667    0.13333333
    0.00000000    0.06666667    0.20000000
    0.00000000    0.06666667    0.26666667
    0.00000000    0.06666667    0.33333333
    0.00000000    0.06666667    0.40000000
    0.00000000    0.06666667    0.46666667
    0.00000000    0.06666667    0.53333333
    0.00000000    0.06666667    0.60000000
    0.00000000    0.06666667    0.66666667
    0.00000000    0.06666667    0.73333333
    0.00000000    0.06666667    0.80000000
    0.00000000    0.06666667    0.86666667
    0.00000000    0.06666667    0.93333333
    0.00000000    0.13333333    0.00000000
    0.00000000    0.13333333    0.06666667
    0.00000000    0.13333333    0.13333333
    0.00000000    0.13333333    0.20000000
    0.00000000    0.13333333    0.26666667
    0.00000000    0.13333333    0.33333333
    0.00000000    0.13333333    0.40000000
    0.00000000    0.13333333    0.46666667
    0.00000000    0.13333333    0.53333333
    0.00000000    0.13333333    0.60000000
    0.00000000    0.13333333    0.66666667
    0.00000000    0.13333333    0.73333333
    0.00000000    0.13333333    0.80000000
    0.00000000    0.13333333    0.86666667
    0.00000000    0.13333333    0.93333333
    0.00000000    0.20000000    0.00000000
    0.00000000    0.20000000    0.06666667
    0.00000000    0.20000000    0.13333333
    0.00000000    0.20000000    0.20000000
    0.00000000    0.20000000    0.26666667
    0.00000000    0.20000000    0.33333333
    0.00000000    0.20000000    0.40000000
    0.00000000    0.20000000    0.46666667
    0.00000000    0.20000000    0.53333333
    0.00000000    0.20000000    0.60000000
    0.00000000    0.20000000    0.66666667
    0.00000000    0.20000000    0.73333333
    0.00000000    0.20000000    0.80000000
    0.00000000    0.20000000    0.86666667
    0.00000000    0.20000000    0.93333333
    0.00000000    0.26666667    0.00000000
    0.00000000    0.26666667    0.06666667
    0.00000000    0.26666667    0.13333333
    0.00000000    0.26666667    0.20000000
    0.00000000    0.26666667    0.26666667
    0.00000000    0.26666667    0.33333333
    0.00000000    0.26666667    0.40000000
    0.00000000    0.26666667    0.46666667
    0.00000000    0.26666667    0.53333333
    0.00000000    0.26666667    0.60000000
    0.00000000    0.26666667    0.66666667
    0.00000000    0.26666667    0.73333333
    0.00000000    0.26666667    0.80000000
    0.00000000    0.26666667    0.86666667
    0.00000000    0.26666667    0.93333333
    0.00000000    0.33333333    0.00000000
    0.00000000    0.33333333    0.06666667
    0.00000000    0.33333333    0.13333333
    0.00000000    0.33333333    0.20000000
    0.00000000    0.33333333    0.26666667
    0.00000000    0.33333333    0.33333333
    0.00000000    0.33333333    0.40000000
    0.00000000    0.33333333    0.46666667
    0.00000000    0.33333333    0.53333333
    0.00000000    0.33333333    0.60000000
    0.00000000    0.33333333    0.66666667
    0.00000000    0.33333333    0.73333333
    0.00000000    0.33333333    0.80000000
    0.00000000    0.33333333    0.86666667
    0.00000000    0.33333333    0.93333333
    0.00000000    0.40000000    0.00000000
    0.00000000    0.40000000    0.06666667
    0.00000000    0.40000000    0.13333333
    0.00000000    0.40000000    0.20000000
    0.00000000    0.40000000    0.26666667
    0.00000000    0.40000000    0.33333333
    0.00000000    0.40000000    0.40000000
    0.00000000    0.40000000    0.46666667
    0.00000000    0.40000000    0.53333333
    0.00000000    0.40000000    0.60000000
    0.00000000    0.40000000    0.66666667
    0.00000000    0.40000000    0.73333333
    0.00000000    0.40000000    0.80000000
    0.00000000    0.40000000    0.86666667
    0.00000000    0.40000000    0.93333333
    0.00000000    0.46666667    0.00000000
    0.00000000    0.46666667    0.06666667
    0.00000000    0.46666667    0.13333333
    0.00000000    0.46666667    0.20000000
    0.00000000    0.46666667    0.26666667
    0.00000000    0.46666667    0.33333333
    0.00000000    0.46666667    0.40000000
    0.00000000    0.46666667    0.46666667
    0.00000000    0.46666667    0.53333333
    0.00000000    0.46666667    0.60000000
    0.00000000    0.46666667    0.66666667
    0.00000000    0.46666667    0.73333333
    0.00000000    0.46666667    0.80000000
    0.00000000    0.46666667    0.86666667
    0.00000000    0.46666667    0.93333333
    0.00000000    0.53333333    0.00000000
    0.00000000    0.53333333    0.06666667
    0.00000000    0.53333333    0.13333333
    0.00000000    0.53333333    0.20000000
    0.00000000    0.53333333    0.26666667
    0.00000000    0.53333333    0.33333333
    0.00000000    0.53333333    0.40000000
    0.00000000    0.53333333    0.46666667
    0.00000000    0.53333333    0.53333333
    0.00000000    0.53333333    0.60000000
    0.00000000    0.53333333    0.66666667
    0.00000000    0.53333333    0.73333333
    0.00000000    0.53333333    0.80000000
    0.00000000    0.53333333    0.86666667
    0.00000000    0.53333333    0.93333333
    0.00000000    0.60000000    0.00000000
    0.00000000    0.60000000    0.06666667
    0.00000000    0.60000000    0.13333333
    0.00000000    0.60000000    0.20000000
    0.00000000    0.60000000    0.26666667
    0.00000000    0.60000000    0.33333333
    0.00000000    0.60000000    0.40000000
    0.00000000    0.60000000    0.46666667
    0.00000000    0.60000000    0.53333333
    0.00000000    0.60000000    0.60000000
    0.00000000    0.60000000    0.66666667
    0.00000000    0.60000000    0.73333333
    0.00000000    0.60000000    0.80000000
    0.00000000    0.60000000    0.86666667
    0.00000000    0.60000000    0.93333333
    0.00000000    0.66666667    0.00000000
    0.00000000    0.66666667    0.06666667
    0.00000000    0.66666667    0.13333333
    0.00000000    0.66666667    0.20000000
    0.00000000    0.66666667    0.26666667
    0.00000000    0.66666667    0.33333333
    0.00000000    0.66666667    0.40000000
    0.00000000    0.66666667    0.46666667
    0.00000000    0.66666667    0.53333333
    0.00000000    0.66666667    0.60000000
    0.00000000    0.66666667    0.66666667
    0.00000000    0.66666667    0.73333333
    0.00000000    0.66666667    0.80000000
    0.00000000    0.66666667    0.86666667
    0.00000000    0.66666667    0.93333333
    0.00000000    0.73333333    0.00000000
    0.00000000    0.73333333    0.06666667
    0.00000000    0.73333333    0.13333333
    0.00000000    0.73333333    0.20000000
    0.00000000    0.73333333    0.26666667
    0.00000000    0.73333333    0.33333333
    0.00000000    0.73333333    0.40000000
    0.00000000    0.73333333    0.46666667
    0.00000000    0.73333333    0.53333333
    0.00000000    0.73333333    0.60000000
    0.00000000    0.73333333    0.66666667
    0.00000000    0.73333333    0.73333333
    0.00000000    0.73333333    0.80000000
    0.00000000    0.73333333    0.86666667
    0.00000000    0.73333333    0.93333333
    0.00000000    0.80000000    0.00000000
    0.00000000    0.80000000    0.06666667
    0.00000000    0.80000000    0.13333333
    0.00000000    0.80000000    0.20000000
    0.00000000    0.80000000    0.26666667
    0.00000000    0.80000000    0.33333333
    0.00000000    0.80000000    0.40000000
    0.00000000    0.80000000    0.46666667
    0.00000000    0.80000000    0.53333333
    0.00000000    0.80000000    0.60000000
    0.00000000    0.80000000    0.66666667
    0.00000000    0.80000000    0.73333333
    0.00000000    0.80000000    0.80000000
    0.00000000    0.80000000    0.86666667
    0.00000000    0.80000000    0.93333333
    0.00000000    0.86666667    0.00000000
    0.00000000    0.86666667    0.06666667
    0.00000000    0.86666667    0.13333333
    0.00000000    0.86666667    0.20000000
    0.00000000    0.86666667    0.26666667
    0.00000000    0.86666667    0.33333333
    0.00000000    0.86666667    0.40000000
    0.00000000    0.86666667    0.46666667
    0.00000000    0.86666667    0.53333333
    0.00000000    0.86666667    0.60000000
    0.00000000    0.86666667    0.66666667
    0.00000000    0.86666667    0.73333333
    0.00000000    0.86666667    0.80000000
    0.00000000    0.86666667    0.86666667
    0.00000000    0.86666667    0.93333333
    0.00000000    0.93333333    0.00000000
    0.00000000    0.93333333    0.06666667
    0.00000000    0.93333333    0.13333333
    0.00000000    0.93333333    0.20000000
    0.00000000    0.93333333    0.26666667
    0.00000000    0.93333333    0.33333333
    0.00000000    0.93333333    0.40000000
    0.00000000    0.93333333    0.46666667
    0.00000000    0.93333333    0.53333333
    0.00000000    0.93333333    0.60000000
    0.00000000    0.93333333    0.66666667
    0.00000000    0.93333333    0.73333333
    0.00000000    0.93333333    0.80000000
    0.00000000    0.93333333    0.86666667
    0.00000000    0.93333333    0.93333333
    0.06666667    0.00000000    0.00000000
    0.06666667    0.00000000    0.06666667
    0.06666667    0.00000000    0.13333333
    0.06666667    0.00000000    0.20000000
    0.06666667    0.00000000    0.26666667
    0.06666667    0.00000000    0.33333333
    0.06666667    0.00000000    0.40000000
    0.06666667    0.00000000    0.46666667
    0.06666667    0.00000000    0.53333333
    0.06666667    0.00000000    0.60000000
    0.06666667    0.00000000    0.66666667
    0.06666667    0.00000000    0.73333333
    0.06666667    0.00000000    0.80000000
    0.06666667    0.00000000    0.86666667
    0.06666667    0.00000000    0.93333333
    0.06666667    0.06666667    0.00000000
    0.06666667    0.06666667    0.06666667
    0.06666667    0.06666667    0.13333333
    0.06666667    0.06666667    0.20000000
    0.06666667    0.06666667    0.26666667
    0.06666667    0.06666667    0.33333333
    0.06666667    0.06666667    0.40000000
    0.06666667    0.06666667    0.46666667
    0.06666667    0.06666667    0.53333333
    0.06666667    0.06666667    0.60000000
    0.06666667    0.06666667    0.66666667
    0.06666667    0.06666667    0.73333333
    0.06666667    0.06666667    0.80000000
    0.06666667    0.06666667    0.86666667
    0.06666667    0.06666667    0.93333333
    0.06666667    0.13333333    0.00000000
    0.06666667    0.13333333    0.06666667
    0.06666667    0.13333333    0.13333333
    0.06666667    0.13333333    0.20000000
    0.06666667    0.13333333    0.26666667
    0.06666667    0.13333333    0.33333333
    0.06666667    0.13333333    0.40000000
    0.06666667    0.13333333    0.46666667
    0.06666667    0.13333333    0.53333333
    0.06666667    0.13333333    0.60000000
    0.06666667    0.13333333    0.66666667
    0.06666667    0.13333333    0.73333333
    0.06666667    0.13333333    0.80000000
    0.06666667    0.13333333    0.86666667
    0.06666667    0.13333333    0.93333333
    0.06666667    0.20000000    0.00000000
    0.06666667    0.20000000    0.06666667
    0.06666667    0.20000000    0.13333333
    0.06666667    0.20000000    0.20000000
    0.06666667    0.20000000    0.26666667
    0.06666667    0.20000000    0.33333333
    0.06666667    0.20000000    0.40000000
    0.06666667    0.20000000    0.46666667
    0.06666667    0.20000000    0.53333333
    0.06666667    0.20000000    0.60000000
    0.06666667    0.20000000    0.66666667
    0.06666667    0.20000000    0.73333333
    0.06666667    0.20000000    0.80000000
    0.06666667    0.20000000    0.86666667
    0.06666667    0.20000000    0.93333333
    0.06666667    0.26666667    0.00000000
    0.06666667    0.26666667    0.06666667
    0.06666667    0.26666667    0.13333333
    0.06666667    0.26666667    0.20000000
    0.06666667    0.26666667    0.26666667
    0.06666667    0.26666667    0.33333333
    0.06666667    0.26666667    0.40000000
    0.06666667    0.26666667    0.46666667
    0.06666667    0.26666667    0.53333333
    0.06666667    0.26666667    0.60000000
    0.06666667    0.26666667    0.66666667
    0.06666667    0.26666667    0.73333333
    0.06666667    0.26666667    0.80000000
    0.06666667    0.26666667    0.86666667
    0.06666667    0.26666667    0.93333333
    0.06666667    0.33333333    0.00000000
    0.06666667    0.33333333    0.06666667
    0.06666667    0.33333333    0.13333333
    0.06666667    0.33333333    0.20000000
    0.06666667    0.33333333    0.26666667
    0.06666667    0.33333333    0.33333333
    0.06666667    0.33333333    0.40000000
    0.06666667    0.33333333    0.46666667
    0.06666667    0.33333333    0.53333333
    0.06666667    0.33333333    0.60000000
    0.06666667    0.33333333    0.66666667
    0.06666667    0.33333333    0.73333333
    0.06666667    0.33333333    0.80000000
    0.06666667    0.33333333    0.86666667
    0.06666667    0.33333333    0.93333333
    0.06666667    0.40000000    0.00000000
    0.06666667    0.40000000    0.06666667
    0.06666667    0.40000000    0.13333333
    0.06666667    0.40000000    0.20000000
    0.06666667    0.40000000    0.26666667
    0.06666667    0.40000000    0.33333333
    0.06666667    0.40000000    0.40000000
    0.06666667    0.40000000    0.46666667
    0.06666667    0.40000000    0.53333333
    0.06666667    0.40000000    0.60000000
    0.06666667    0.40000000    0.66666667
    0.06666667    0.40000000    0.73333333
    0.06666667    0.40000000    0.80000000
    0.06666667    0.40000000    0.86666667
    0.06666667    0.40000000    0.93333333
    0.06666667    0.46666667    0.00000000
    0.06666667    0.46666667    0.06666667
    0.06666667    0.46666667    0.13333333
    0.06666667    0.46666667    0.20000000
    0.06666667    0.46666667    0.26666667
    0.06666667    0.46666667    0.33333333
    0.06666667    0.46666667    0.40000000
    0.06666667    0.46666667    0.46666667
    0.06666667    0.46666667    0.53333333
    0.06666667    0.46666667    0.60000000
    0.06666667    0.46666667    0.66666667
    0.06666667    0.46666667    0.73333333
    0.06666667    0.46666667    0.80000000
    0.06666667    0.46666667    0.86666667
    0.06666667    0.46666667    0.93333333
    0.06666667    0.53333333    0.00000000
    0.06666667    0.53333333    0.06666667
    0.06666667    0.53333333    0.13333333
    0.06666667    0.53333333    0.20000000
    0.06666667    0.53333333    0.26666667
    0.06666667    0.53333333    0.33333333
    0.06666667    0.53333333    0.40000000
    0.06666667    0.53333333    0.46666667
    0.06666667    0.53333333    0.53333333
    0.06666667    0.53333333    0.60000000
    0.06666667    0.53333333    0.66666667
    0.06666667    0.53333333    0.73333333
    0.06666667    0.53333333    0.80000000
    0.06666667    0.53333333    0.86666667
    0.06666667    0.53333333    0.93333333
    0.06666667    0.60000000    0.00000000
    0.06666667    0.60000000    0.06666667
    0.06666667    0.60000000    0.13333333
    0.06666667    0.60000000    0.20000000
    0.06666667    0.60000000    0.26666667
    0.06666667    0.60000000    0.33333333
    0.06666667    0.60000000    0.40000000
    0.06666667    0.60000000    0.46666667
    0.06666667    0.60000000    0.53333333
    0.06666667    0.60000000    0.60000000
    0.06666667    0.60000000    0.66666667
    0.06666667    0.60000000    0.73333333
    0.06666667    0.60000000    0.80000000
    0.06666667    0.60000000    0.86666667
    0.06666667    0.60000000    0.93333333
    0.06666667    0.66666667    0.00000000
    0.06666667    0.66666667    0.06666667
    0.06666667    0.66666667    0.13333333
    0.06666667    0.66666667    0.20000000
    0.06666667    0.66666667    0.26666667
    0.06666667    0.66666667    0.33333333
    0.06666667    0.66666667    0.40000000
    0.06666667    0.66666667    0.46666667
    0.06666667    0.66666667    0.53333333
    0.06666667    0.66666667    0.60000000
    0.06666667    0.66666667    0.66666667
    0.06666667    0.66666667    0.73333333
    0.06666667    0.66666667    0.80000000
    0.06666667    0.66666667    0.86666667
    0.06666667    0.66666667    0.93333333
    0.06666667    0.73333333    0.00000000
    0.06666667    0.73333333    0.06666667
    0.06666667    0.73333333    0.13333333
    0.06666667    0.73333333    0.20000000
    0.06666667    0.73333333    0.26666667
    0.06666667    0.73333333    0.33333333
    0.06666667    0.73333333    0.40000000
    0.06666667    0.73333333    0.46666667
    0.06666667    0.73333333    0.53333333
    0.06666667    0.73333333    0.60000000
    0.06666667    0.73333333    0.66666667
    0.06666667    0.73333333    0.73333333
    0.06666667    0.73333333    0.80000000
    0.06666667    0.73333333    0.86666667
    0.06666667    0.73333333    0.93333333
    0.06666667    0.80000000    0.00000000
    0.06666667    0.80000000    0.06666667
    0.06666667    0.80000000    0.13333333
    0.06666667    0.80000000    0.20000000
    0.06666667    0.80000000    0.26666667
    0.06666667    0.80000000    0.33333333
    0.06666667    0.80000000    0.40000000
    0.06666667    0.80000000    0.46666667
    0.06666667    0.80000000    0.53333333
    0.06666667    0.80000000    0.60000000
    0.06666667    0.80000000    0.66666667
    0.06666667    0.80000000    0.73333333
    0.06666667    0.80000000    0.80000000
    0.06666667    0.80000000    0.86666667
    0.06666667    0.80000000    0.93333333
    0.06666667    0.86666667    0.00000000
    0.06666667    0.86666667    0.06666667
    0.06666667    0.86666667    0.13333333
    0.06666667    0.86666667    0.20000000
    0.06666667    0.86666667    0.26666667
    0.06666667    0.86666667    0.33333333
    0.06666667    0.86666667    0.40000000
    0.06666667    0.86666667    0.46666667
    0.06666667    0.86666667    0.53333333
    0.06666667    0.86666667    0.60000000
    0.06666667    0.86666667    0.66666667
    0.06666667    0.86666667    0.73333333
    0.06666667    0.86666667    0.80000000
    0.06666667    0.86666667    0.86666667
    0.06666667    0.86666667    0.93333333
    0.06666667    0.93333333    0.00000000
    0.06666667    0.93333333    0.06666667
    0.06666667    0.93333333    0.13333333
    0.06666667    0.93333333    0.20000000
    0.06666667    0.93333333    0.26666667
    0.06666667    0.93333333    0.33333333
    0.06666667    0.93333333    0.40000000
    0.06666667    0.93333333    0.46666667
    0.06666667    0.93333333    0.53333333
    0.06666667    0.93333333    0.60000000
    0.06666667    0.93333333    0.66666667
    0.06666667    0.93333333    0.73333333
    0.06666667    0.93333333    0.80000000
    0.06666667    0.93333333    0.86666667
    0.06666667    0.93333333    0.93333333
    0.13333333    0.00000000    0.00000000
    0.13333333    0.00000000    0.06666667
    0.13333333    0.00000000    0.13333333
    0.13333333    0.00000000    0.20000000
    0.13333333    0.00000000    0.26666667
    0.13333333    0.00000000    0.33333333
    0.13333333    0.00000000    0.40000000
    0.13333333    0.00000000    0.46666667
    0.13333333    0.00000000    0.53333333
    0.13333333    0.00000000    0.60000000
    0.13333333    0.00000000    0.66666667
    0.13333333    0.00000000    0.73333333
    0.13333333    0.00000000    0.80000000
    0.13333333    0.00000000    0.86666667
    0.13333333    0.00000000    0.93333333
    0.13333333    0.06666667    0.00000000
    0.13333333    0.06666667    0.06666667
    0.13333333    0.06666667    0.13333333
    0.13333333    0.06666667    0.20000000
    0.13333333    0.06666667    0.26666667
    0.13333333    0.06666667    0.33333333
    0.13333333    0.06666667    0.40000000
    0.13333333    0.06666667    0.46666667
    0.13333333    0.06666667    0.53333333
    0.13333333    0.06666667    0.60000000
    0.13333333    0.06666667    0.66666667
    0.13333333    0.06666667    0.73333333
    0.13333333    0.06666667    0.80000000
    0.13333333    0.06666667    0.86666667
    0.13333333    0.06666667    0.93333333
    0.13333333    0.13333333    0.00000000
    0.13333333    0.13333333    0.06666667
    0.13333333    0.13333333    0.13333333
    0.13333333    0.13333333    0.20000000
    0.13333333    0.13333333    0.26666667
    0.13333333    0.13333333    0.33333333
    0.13333333    0.13333333    0.40000000
    0.13333333    0.13333333    0.46666667
    0.13333333    0.13333333    0.53333333
    0.13333333    0.13333333    0.60000000
    0.13333333    0.13333333    0.66666667
    0.13333333    0.13333333    0.73333333
    0.13333333    0.13333333    0.80000000
    0.13333333    0.13333333    0.86666667
    0.13333333    0.13333333    0.93333333
    0.13333333    0.20000000    0.00000000
    0.13333333    0.20000000    0.06666667
    0.13333333    0.20000000    0.13333333
    0.13333333    0.20000000    0.20000000
    0.13333333    0.20000000    0.26666667
    0.13333333    0.20000000    0.33333333
    0.13333333    0.20000000    0.40000000
    0.13333333    0.20000000    0.46666667
    0.13333333    0.20000000    0.53333333
    0.13333333    0.20000000    0.60000000
    0.13333333    0.20000000    0.66666667
    0.13333333    0.20000000    0.73333333
    0.13333333    0.20000000    0.80000000
    0.13333333    0.20000000    0.86666667
    0.13333333    0.20000000    0.93333333
    0.13333333    0.26666667    0.00000000
    0.13333333    0.26666667    0.06666667
    0.13333333    0.26666667    0.13333333
    0.13333333    0.26666667    0.20000000
    0.13333333    0.26666667    0.26666667
    0.13333333    0.26666667    0.33333333
    0.13333333    0.26666667    0.40000000
    0.13333333    0.26666667    0.46666667
    0.13333333    0.26666667    0.53333333
    0.13333333    0.26666667    0.60000000
    0.13333333    0.26666667    0.66666667
    0.13333333    0.26666667    0.73333333
    0.13333333    0.26666667    0.80000000
    0.13333333    0.26666667    0.86666667
    0.13333333    0.26666667    0.93333333
    0.13333333    0.33333333    0.00000000
    0.13333333    0.33333333    0.06666667
    0.13333333    0.33333333    0.13333333
    0.13333333    0.33333333    0.20000000
    0.13333333    0.33333333    0.26666667
    0.13333333    0.33333333    0.33333333
    0.13333333    0.33333333    0.40000000
    0.13333333    0.33333333    0.46666667
    0.13333333    0.33333333    0.53333333
    0.13333333    0.33333333    0.60000000
    0.13333333    0.33333333    0.66666667
    0.13333333    0.33333333    0.73333333
    0.13333333    0.33333333    0.80000000
    0.13333333    0.33333333    0.86666667
    0.13333333    0.33333333    0.93333333
    0.13333333    0.40000000    0.00000000
    0.13333333    0.40000000    0.06666667
    0.13333333    0.40000000    0.13333333
    0.13333333    0.40000000    0.20000000
    0.13333333    0.40000000    0.26666667
    0.13333333    0.40000000    0.33333333
    0.13333333    0.40000000    0.40000000
    0.13333333    0.40000000    0.46666667
    0.13333333    0.40000000    0.53333333
    0.13333333    0.40000000    0.60000000
    0.13333333    0.40000000    0.66666667
    0.13333333    0.40000000    0.73333333
    0.13333333    0.40000000    0.80000000
    0.13333333    0.40000000    0.86666667
    0.13333333    0.40000000    0.93333333
    0.13333333    0.46666667    0.00000000
    0.13333333    0.46666667    0.06666667
    0.13333333    0.46666667    0.13333333
    0.13333333    0.46666667    0.20000000
    0.13333333    0.46666667    0.26666667
    0.13333333    0.46666667    0.33333333
    0.13333333    0.46666667    0.40000000
    0.13333333    0.46666667    0.46666667
    0.13333333    0.46666667    0.53333333
    0.13333333    0.46666667    0.60000000
    0.13333333    0.46666667    0.66666667
    0.13333333    0.46666667    0.73333333
    0.13333333    0.46666667    0.80000000
    0.13333333    0.46666667    0.86666667
    0.13333333    0.46666667    0.93333333
    0.13333333    0.53333333    0.00000000
    0.13333333    0.53333333    0.06666667
    0.13333333    0.53333333    0.13333333
    0.13333333    0.53333333    0.20000000
    0.13333333    0.53333333    0.26666667
    0.13333333    0.53333333    0.33333333
    0.13333333    0.53333333    0.40000000
    0.13333333    0.53333333    0.46666667
    0.13333333    0.53333333    0.53333333
    0.13333333    0.53333333    0.60000000
    0.13333333    0.53333333    0.66666667
    0.13333333    0.53333333    0.73333333
    0.13333333    0.53333333    0.80000000
    0.13333333    0.53333333    0.86666667
    0.13333333    0.53333333    0.93333333
    0.13333333    0.60000000    0.00000000
    0.13333333    0.60000000    0.06666667
    0.13333333    0.60000000    0.13333333
    0.13333333    0.60000000    0.20000000
    0.13333333    0.60000000    0.26666667
    0.13333333    0.60000000    0.33333333
    0.13333333    0.60000000    0.40000000
    0.13333333    0.60000000    0.46666667
    0.13333333    0.60000000    0.53333333
    0.13333333    0.60000000    0.60000000
    0.13333333    0.60000000    0.66666667
    0.13333333    0.60000000    0.73333333
    0.13333333    0.60000000    0.80000000
    0.13333333    0.60000000    0.86666667
    0.13333333    0.60000000    0.93333333
    0.13333333    0.66666667    0.00000000
    0.13333333    0.66666667    0.06666667
    0.13333333    0.66666667    0.13333333
    0.13333333    0.66666667    0.20000000
    0.13333333    0.66666667    0.26666667
    0.13333333    0.66666667    0.33333333
    0.13333333    0.66666667    0.40000000
    0.13333333    0.66666667    0.46666667
    0.13333333    0.66666667    0.53333333
    0.13333333    0.66666667    0.60000000
    0.13333333    0.66666667    0.66666667
    0.13333333    0.66666667    0.73333333
    0.13333333    0.66666667    0.80000000
    0.13333333    0.66666667    0.86666667
    0.13333333    0.66666667    0.93333333
    0.13333333    0.73333333    0.00000000
    0.13333333    0.73333333    0.06666667
    0.13333333    0.73333333    0.13333333
    0.13333333    0.73333333    0.20000000
    0.13333333    0.73333333    0.26666667
    0.13333333    0.73333333    0.33333333
    0.13333333    0.73333333    0.40000000
    0.13333333    0.73333333    0.46666667
    0.13333333    0.73333333    0.53333333
    0.13333333    0.73333333    0.60000000
    0.13333333    0.73333333    0.66666667
    0.13333333    0.73333333    0.73333333
    0.13333333    0.73333333    0.80000000
    0.13333333    0.73333333    0.86666667
    0.13333333    0.73333333    0.93333333
    0.13333333    0.80000000    0.00000000
    0.13333333    0.80000000    0.06666667
    0.13333333    0.80000000    0.13333333
    0.13333333    0.80000000    0.20000000
    0.13333333    0.80000000    0.26666667
    0.13333333    0.80000000    0.33333333
    0.13333333    0.80000000    0.40000000
    0.13333333    0.80000000    0.46666667
    0.13333333    0.80000000    0.53333333
    0.13333333    0.80000000    0.60000000
    0.13333333    0.80000000    0.66666667
    0.13333333    0.80000000    0.73333333
    0.13333333    0.80000000    0.80000000
    0.13333333    0.80000000    0.86666667
    0.13333333    0.80000000    0.93333333
    0.13333333    0.86666667    0.00000000
    0.13333333    0.86666667    0.06666667
    0.13333333    0.86666667    0.13333333
    0.13333333    0.86666667    0.20000000
    0.13333333    0.86666667    0.26666667
    0.13333333    0.86666667    0.33333333
    0.13333333    0.86666667    0.40000000
    0.13333333    0.86666667    0.46666667
    0.13333333    0.86666667    0.53333333
    0.13333333    0.86666667    0.60000000
    0.13333333    0.86666667    0.66666667
    0.13333333    0.86666667    0.73333333
    0.13333333    0.86666667    0.80000000
    0.13333333    0.86666667    0.86666667
    0.13333333    0.86666667    0.93333333
    0.13333333    0.93333333    0.00000000
    0.13333333    0.93333333    0.06666667
    0.13333333    0.93333333    0.13333333
    0.13333333    0.93333333    0.20000000
    0.13333333    0.93333333    0.26666667
    0.13333333    0.93333333    0.33333333
    0.13333333    0.93333333    0.40000000
    0.13333333    0.93333333    0.46666667
    0.13333333    0.93333333    0.53333333
    0.13333333    0.93333333    0.60000000
    0.13333333    0.93333333    0.66666667
    0.13333333    0.93333333    0.73333333
    0.13333333    0.93333333    0.80000000
    0.13333333    0.93333333    0.86666667
    0.13333333    0.93333333    0.93333333
    0.20000000    0.00000000    0.00000000
    0.20000000    0.00000000    0.06666667
    0.20000000    0.00000000    0.13333333
    0.20000000    0.00000000    0.20000000
    0.20000000    0.00000000    0.26666667
    0.20000000    0.00000000    0.33333333
    0.20000000    0.00000000    0.40000000
    0.20000000    0.00000000    0.46666667
    0.20000000    0.00000000    0.53333333
    0.20000000    0.00000000    0.60000000
    0.20000000    0.00000000    0.66666667
    0.20000000    0.00000000    0.73333333
    0.20000000    0.00000000    0.80000000
    0.20000000    0.00000000    0.86666667
    0.20000000    0.00000000    0.93333333
    0.20000000    0.06666667    0.00000000
    0.20000000    0.06666667    0.06666667
    0.20000000    0.06666667    0.13333333
    0.20000000    0.06666667    0.20000000
    0.20000000    0.06666667    0.26666667
    0.20000000    0.06666667    0.33333333
    0.20000000    0.06666667    0.40000000
    0.20000000    0.06666667    0.46666667
    0.20000000    0.06666667    0.53333333
    0.20000000    0.06666667    0.60000000
    0.20000000    0.06666667    0.66666667
    0.20000000    0.06666667    0.73333333
    0.20000000    0.06666667    0.80000000
    0.20000000    0.06666667    0.86666667
    0.20000000    0.06666667    0.93333333
    0.20000000    0.13333333    0.00000000
    0.20000000    0.13333333    0.06666667
    0.20000000    0.13333333    0.13333333
    0.20000000    0.13333333    0.20000000
    0.20000000    0.13333333    0.26666667
    0.20000000    0.13333333    0.33333333
    0.20000000    0.13333333    0.40000000
    0.20000000    0.13333333    0.46666667
    0.20000000    0.13333333    0.53333333
    0.20000000    0.13333333    0.60000000
    0.20000000    0.13333333    0.66666667
    0.20000000    0.13333333    0.73333333
    0.20000000    0.13333333    0.80000000
    0.20000000    0.13333333    0.86666667
    0.20000000    0.13333333    0.93333333
    0.20000000    0.20000000    0.00000000
    0.20000000    0.20000000    0.06666667
    0.20000000    0.20000000    0.13333333
    0.20000000    0.20000000    0.20000000
    0.20000000    0.20000000    0.26666667
    0.20000000    0.20000000    0.33333333
    0.20000000    0.20000000    0.40000000
    0.20000000    0.20000000    0.46666667
    0.20000000    0.20000000    0.53333333
    0.20000000    0.20000000    0.60000000
    0.20000000    0.20000000    0.66666667
    0.20000000    0.20000000    0.73333333
    0.20000000    0.20000000    0.80000000
    0.20000000    0.20000000    0.86666667
    0.20000000    0.20000000    0.93333333
    0.20000000    0.26666667    0.00000000
    0.20000000    0.26666667    0.06666667
    0.20000000    0.26666667    0.13333333
    0.20000000    0.26666667    0.20000000
    0.20000000    0.26666667    0.26666667
    0.20000000    0.26666667    0.33333333
    0.20000000    0.26666667    0.40000000
    0.20000000    0.26666667    0.46666667
    0.20000000    0.26666667    0.53333333
    0.20000000    0.26666667    0.60000000
    0.20000000    0.26666667    0.66666667
    0.20000000    0.26666667    0.73333333
    0.20000000    0.26666667    0.80000000
    0.20000000    0.26666667    0.86666667
    0.20000000    0.26666667    0.93333333
    0.20000000    0.33333333    0.00000000
    0.20000000    0.33333333    0.06666667
    0.20000000    0.33333333    0.13333333
    0.20000000    0.33333333    0.20000000
    0.20000000    0.33333333    0.26666667
    0.20000000    0.33333333    0.33333333
    0.20000000    0.33333333    0.40000000
    0.20000000    0.33333333    0.46666667
    0.20000000    0.33333333    0.53333333
    0.20000000    0.33333333    0.60000000
    0.20000000    0.33333333    0.66666667
    0.20000000    0.33333333    0.73333333
    0.20000000    0.33333333    0.80000000
    0.20000000    0.33333333    0.86666667
    0.20000000    0.33333333    0.93333333
    0.20000000    0.40000000    0.00000000
    0.20000000    0.40000000    0.06666667
    0.20000000    0.40000000    0.13333333
    0.20000000    0.40000000    0.20000000
    0.20000000    0.40000000    0.26666667
    0.20000000    0.40000000    0.33333333
    0.20000000    0.40000000    0.40000000
    0.20000000    0.40000000    0.46666667
    0.20000000    0.40000000    0.53333333
    0.20000000    0.40000000    0.60000000
    0.20000000    0.40000000    0.66666667
    0.20000000    0.40000000    0.73333333
    0.20000000    0.40000000    0.80000000
    0.20000000    0.40000000    0.86666667
    0.20000000    0.40000000    0.93333333
    0.20000000    0.46666667    0.00000000
    0.20000000    0.46666667    0.06666667
    0.20000000    0.46666667    0.13333333
    0.20000000    0.46666667    0.20000000
    0.20000000    0.46666667    0.26666667
    0.20000000    0.46666667    0.33333333
    0.20000000    0.46666667    0.40000000
    0.20000000    0.46666667    0.46666667
    0.20000000    0.46666667    0.53333333
    0.20000000    0.46666667    0.60000000
    0.20000000    0.46666667    0.66666667
    0.20000000    0.46666667    0.73333333
    0.20000000    0.46666667    0.80000000
    0.20000000    0.46666667    0.86666667
    0.20000000    0.46666667    0.93333333
    0.20000000    0.53333333    0.00000000
    0.20000000    0.53333333    0.06666667
    0.20000000    0.53333333    0.13333333
    0.20000000    0.53333333    0.20000000
    0.20000000    0.53333333    0.26666667
    0.20000000    0.53333333    0.33333333
    0.20000000    0.53333333    0.40000000
    0.20000000    0.53333333    0.46666667
    0.20000000    0.53333333    0.53333333
    0.20000000    0.53333333    0.60000000
    0.20000000    0.53333333    0.66666667
    0.20000000    0.53333333    0.73333333
    0.20000000    0.53333333    0.80000000
    0.20000000    0.53333333    0.86666667
    0.20000000    0.53333333    0.93333333
    0.20000000    0.60000000    0.00000000
    0.20000000    0.60000000    0.06666667
    0.20000000    0.60000000    0.13333333
    0.20000000    0.60000000    0.20000000
    0.20000000    0.60000000    0.26666667
    0.20000000    0.60000000    0.33333333
    0.20000000    0.60000000    0.40000000
    0.20000000    0.60000000    0.46666667
    0.20000000    0.60000000    0.53333333
    0.20000000    0.60000000    0.60000000
    0.20000000    0.60000000    0.66666667
    0.20000000    0.60000000    0.73333333
    0.20000000    0.60000000    0.80000000
    0.20000000    0.60000000    0.86666667
    0.20000000    0.60000000    0.93333333
    0.20000000    0.66666667    0.00000000
    0.20000000    0.66666667    0.06666667
    0.20000000    0.66666667    0.13333333
    0.20000000    0.66666667    0.20000000
    0.20000000    0.66666667    0.26666667
    0.20000000    0.66666667    0.33333333
    0.20000000    0.66666667    0.40000000
    0.20000000    0.66666667    0.46666667
    0.20000000    0.66666667    0.53333333
    0.20000000    0.66666667    0.60000000
    0.20000000    0.66666667    0.66666667
    0.20000000    0.66666667    0.73333333
    0.20000000    0.66666667    0.80000000
    0.20000000    0.66666667    0.86666667
    0.20000000    0.66666667    0.93333333
    0.20000000    0.73333333    0.00000000
    0.20000000    0.73333333    0.06666667
    0.20000000    0.73333333    0.13333333
    0.20000000    0.73333333    0.20000000
    0.20000000    0.73333333    0.26666667
    0.20000000    0.73333333    0.33333333
    0.20000000    0.73333333    0.40000000
    0.20000000    0.73333333    0.46666667
    0.20000000    0.73333333    0.53333333
    0.20000000    0.73333333    0.60000000
    0.20000000    0.73333333    0.66666667
    0.20000000    0.73333333    0.73333333
    0.20000000    0.73333333    0.80000000
    0.20000000    0.73333333    0.86666667
    0.20000000    0.73333333    0.93333333
    0.20000000    0.80000000    0.00000000
    0.20000000    0.80000000    0.06666667
    0.20000000    0.80000000    0.13333333
    0.20000000    0.80000000    0.20000000
    0.20000000    0.80000000    0.26666667
    0.20000000    0.80000000    0.33333333
    0.20000000    0.80000000    0.40000000
    0.20000000    0.80000000    0.46666667
    0.20000000    0.80000000    0.53333333
    0.20000000    0.80000000    0.60000000
    0.20000000    0.80000000    0.66666667
    0.20000000    0.80000000    0.73333333
    0.20000000    0.80000000    0.80000000
    0.20000000    0.80000000    0.86666667
    0.20000000    0.80000000    0.93333333
    0.20000000    0.86666667    0.00000000
    0.20000000    0.86666667    0.06666667
    0.20000000    0.86666667    0.13333333
    0.20000000    0.86666667    0.20000000
    0.20000000    0.86666667    0.26666667
    0.20000000    0.86666667    0.33333333
    0.20000000    0.86666667    0.40000000
    0.20000000    0.86666667    0.46666667
    0.20000000    0.86666667    0.53333333
    0.20000000    0.86666667    0.60000000
    0.20000000    0.86666667    0.66666667
    0.20000000    0.86666667    0.73333333
    0.20000000    0.86666667    0.80000000
    0.20000000    0.86666667    0.86666667
    0.20000000    0.86666667    0.93333333
    0.20000000    0.93333333    0.00000000
    0.20000000    0.93333333    0.06666667
    0.20000000    0.93333333    0.13333333
    0.20000000    0.93333333    0.20000000
    0.20000000    0.93333333    0.26666667
    0.20000000    0.93333333    0.33333333
    0.20000000    0.93333333    0.40000000
    0.20000000    0.93333333    0.46666667
    0.20000000    0.93333333    0.53333333
    0.20000000    0.93333333    0.60000000
    0.20000000    0.93333333    0.66666667
    0.20000000    0.93333333    0.73333333
    0.20000000    0.93333333    0.80000000
    0.20000000    0.93333333    0.86666667
    0.20000000    0.93333333    0.93333333
    0.26666667    0.00000000    0.00000000
    0.26666667    0.00000000    0.06666667
    0.26666667    0.00000000    0.13333333
    0.26666667    0.00000000    0.20000000
    0.26666667    0.00000000    0.26666667
    0.26666667    0.00000000    0.33333333
    0.26666667    0.00000000    0.40000000
    0.26666667    0.00000000    0.46666667
    0.26666667    0.00000000    0.53333333
    0.26666667    0.00000000    0.60000000
    0.26666667    0.00000000    0.66666667
    0.26666667    0.00000000    0.73333333
    0.26666667    0.00000000    0.80000000
    0.26666667    0.00000000    0.86666667
    0.26666667    0.00000000    0.93333333
    0.26666667    0.06666667    0.00000000
    0.26666667    0.06666667    0.06666667
    0.26666667    0.06666667    0.13333333
    0.26666667    0.06666667    0.20000000
    0.26666667    0.06666667    0.26666667
    0.26666667    0.06666667    0.33333333
    0.26666667    0.06666667    0.40000000
    0.26666667    0.06666667    0.46666667
    0.26666667    0.06666667    0.53333333
    0.26666667    0.06666667    0.60000000
    0.26666667    0.06666667    0.66666667
    0.26666667    0.06666667    0.73333333
    0.26666667    0.06666667    0.80000000
    0.26666667    0.06666667    0.86666667
    0.26666667    0.06666667    0.93333333
    0.26666667    0.13333333    0.00000000
    0.26666667    0.13333333    0.06666667
    0.26666667    0.13333333    0.13333333
    0.26666667    0.13333333    0.20000000
    0.26666667    0.13333333    0.26666667
    0.26666667    0.13333333    0.33333333
    0.26666667    0.13333333    0.40000000
    0.26666667    0.13333333    0.46666667
    0.26666667    0.13333333    0.53333333
    0.26666667    0.13333333    0.60000000
    0.26666667    0.13333333    0.66666667
    0.26666667    0.13333333    0.73333333
    0.26666667    0.13333333    0.80000000
    0.26666667    0.13333333    0.86666667
    0.26666667    0.13333333    0.93333333
    0.26666667    0.20000000    0.00000000
    0.26666667    0.20000000    0.06666667
    0.26666667    0.20000000    0.13333333
    0.26666667    0.20000000    0.20000000
    0.26666667    0.20000000    0.26666667
    0.26666667    0.20000000    0.33333333
    0.26666667    0.20000000    0.40000000
    0.26666667    0.20000000    0.46666667
    0.26666667    0.20000000    0.53333333
    0.26666667    0.20000000    0.60000000
    0.26666667    0.20000000    0.66666667
    0.26666667    0.20000000    0.73333333
    0.26666667    0.20000000    0.80000000
    0.26666667    0.20000000    0.86666667
    0.26666667    0.20000000    0.93333333
    0.26666667    0.26666667    0.00000000
    0.26666667    0.26666667    0.06666667
    0.26666667    0.26666667    0.13333333
    0.26666667    0.26666667    0.20000000
    0.26666667    0.26666667    0.26666667
    0.26666667    0.26666667    0.33333333
    0.26666667    0.26666667    0.40000000
    0.26666667    0.26666667    0.46666667
    0.26666667    0.26666667    0.53333333
    0.26666667    0.26666667    0.60000000
    0.26666667    0.26666667    0.66666667
    0.26666667    0.26666667    0.73333333
    0.26666667    0.26666667    0.80000000
    0.26666667    0.26666667    0.86666667
    0.26666667    0.26666667    0.93333333
    0.26666667    0.33333333    0.00000000
    0.26666667    0.33333333    0.06666667
    0.26666667    0.33333333    0.13333333
    0.26666667    0.33333333    0.20000000
    0.26666667    0.33333333    0.26666667
    0.26666667    0.33333333    0.33333333
    0.26666667    0.33333333    0.40000000
    0.26666667    0.33333333    0.46666667
    0.26666667    0.33333333    0.53333333
    0.26666667    0.33333333    0.60000000
    0.26666667    0.33333333    0.66666667
    0.26666667    0.33333333    0.73333333
    0.26666667    0.33333333    0.80000000
    0.26666667    0.33333333    0.86666667
    0.26666667    0.33333333    0.93333333
    0.26666667    0.40000000    0.00000000
    0.26666667    0.40000000    0.06666667
    0.26666667    0.40000000    0.13333333
    0.26666667    0.40000000    0.20000000
    0.26666667    0.40000000    0.26666667
    0.26666667    0.40000000    0.33333333
    0.26666667    0.40000000    0.40000000
    0.26666667    0.40000000    0.46666667
    0.26666667    0.40000000    0.53333333
    0.26666667    0.40000000    0.60000000
    0.26666667    0.40000000    0.66666667
    0.26666667    0.40000000    0.73333333
    0.26666667    0.40000000    0.80000000
    0.26666667    0.40000000    0.86666667
    0.26666667    0.40000000    0.93333333
    0.26666667    0.46666667    0.00000000
    0.26666667    0.46666667    0.06666667
    0.26666667    0.46666667    0.13333333
    0.26666667    0.46666667    0.20000000
    0.26666667    0.46666667    0.26666667
    0.26666667    0.46666667    0.33333333
    0.26666667    0.46666667    0.40000000
    0.26666667    0.46666667    0.46666667
    0.26666667    0.46666667    0.53333333
    0.26666667    0.46666667    0.60000000
    0.26666667    0.46666667    0.66666667
    0.26666667    0.46666667    0.73333333
    0.26666667    0.46666667    0.80000000
    0.26666667    0.46666667    0.86666667
    0.26666667    0.46666667    0.93333333
    0.26666667    0.53333333    0.00000000
    0.26666667    0.53333333    0.06666667
    0.26666667    0.53333333    0.13333333
    0.26666667    0.53333333    0.20000000
    0.26666667    0.53333333    0.26666667
    0.26666667    0.53333333    0.33333333
    0.26666667    0.53333333    0.40000000
    0.26666667    0.53333333    0.46666667
    0.26666667    0.53333333    0.53333333
    0.26666667    0.53333333    0.60000000
    0.26666667    0.53333333    0.66666667
    0.26666667    0.53333333    0.73333333
    0.26666667    0.53333333    0.80000000
    0.26666667    0.53333333    0.86666667
    0.26666667    0.53333333    0.93333333
    0.26666667    0.60000000    0.00000000
    0.26666667    0.60000000    0.06666667
    0.26666667    0.60000000    0.13333333
    0.26666667    0.60000000    0.20000000
    0.26666667    0.60000000    0.26666667
    0.26666667    0.60000000    0.33333333
    0.26666667    0.60000000    0.40000000
    0.26666667    0.60000000    0.46666667
    0.26666667    0.60000000    0.53333333
    0.26666667    0.60000000    0.60000000
    0.26666667    0.60000000    0.66666667
    0.26666667    0.60000000    0.73333333
    0.26666667    0.60000000    0.80000000
    0.26666667    0.60000000    0.86666667
    0.26666667    0.60000000    0.93333333
    0.26666667    0.66666667    0.00000000
    0.26666667    0.66666667    0.06666667
    0.26666667    0.66666667    0.13333333
    0.26666667    0.66666667    0.20000000
    0.26666667    0.66666667    0.26666667
    0.26666667    0.66666667    0.33333333
    0.26666667    0.66666667    0.40000000
    0.26666667    0.66666667    0.46666667
    0.26666667    0.66666667    0.53333333
    0.26666667    0.66666667    0.60000000
    0.26666667    0.66666667    0.66666667
    0.26666667    0.66666667    0.73333333
    0.26666667    0.66666667    0.80000000
    0.26666667    0.66666667    0.86666667
    0.26666667    0.66666667    0.93333333
    0.26666667    0.73333333    0.00000000
    0.26666667    0.73333333    0.06666667
    0.26666667    0.73333333    0.13333333
    0.26666667    0.73333333    0.20000000
    0.26666667    0.73333333    0.26666667
    0.26666667    0.73333333    0.33333333
    0.26666667    0.73333333    0.40000000
    0.26666667    0.73333333    0.46666667
    0.26666667    0.73333333    0.53333333
    0.26666667    0.73333333    0.60000000
    0.26666667    0.73333333    0.66666667
    0.26666667    0.73333333    0.73333333
    0.26666667    0.73333333    0.80000000
    0.26666667    0.73333333    0.86666667
    0.26666667    0.73333333    0.93333333
    0.26666667    0.80000000    0.00000000
    0.26666667    0.80000000    0.06666667
    0.26666667    0.80000000    0.13333333
    0.26666667    0.80000000    0.20000000
    0.26666667    0.80000000    0.26666667
    0.26666667    0.80000000    0.33333333
    0.26666667    0.80000000    0.40000000
    0.26666667    0.80000000    0.46666667
    0.26666667    0.80000000    0.53333333
    0.26666667    0.80000000    0.60000000
    0.26666667    0.80000000    0.66666667
    0.26666667    0.80000000    0.73333333
    0.26666667    0.80000000    0.80000000
    0.26666667    0.80000000    0.86666667
    0.26666667    0.80000000    0.93333333
    0.26666667    0.86666667    0.00000000
    0.26666667    0.86666667    0.06666667
    0.26666667    0.86666667    0.13333333
    0.26666667    0.86666667    0.20000000
    0.26666667    0.86666667    0.26666667
    0.26666667    0.86666667    0.33333333
    0.26666667    0.86666667    0.40000000
    0.26666667    0.86666667    0.46666667
    0.26666667    0.86666667    0.53333333
    0.26666667    0.86666667    0.60000000
    0.26666667    0.86666667    0.66666667
    0.26666667    0.86666667    0.73333333
    0.26666667    0.86666667    0.80000000
    0.26666667    0.86666667    0.86666667
    0.26666667    0.86666667    0.93333333
    0.26666667    0.93333333    0.00000000
    0.26666667    0.93333333    0.06666667
    0.26666667    0.93333333    0.13333333
    0.26666667    0.93333333    0.20000000
    0.26666667    0.93333333    0.26666667
    0.26666667    0.93333333    0.33333333
    0.26666667    0.93333333    0.40000000
    0.26666667    0.93333333    0.46666667
    0.26666667    0.93333333    0.53333333
    0.26666667    0.93333333    0.60000000
    0.26666667    0.93333333    0.66666667
    0.26666667    0.93333333    0.73333333
    0.26666667    0.93333333    0.80000000
    0.26666667    0.93333333    0.86666667
    0.26666667    0.93333333    0.93333333
    0.33333333    0.00000000    0.00000000
    0.33333333    0.00000000    0.06666667
    0.33333333    0.00000000    0.13333333
    0.33333333    0.00000000    0.20000000
    0.33333333    0.00000000    0.26666667
    0.33333333    0.00000000    0.33333333
    0.33333333    0.00000000    0.40000000
    0.33333333    0.00000000    0.46666667
    0.33333333    0.00000000    0.53333333
    0.33333333    0.00000000    0.60000000
    0.33333333    0.00000000    0.66666667
    0.33333333    0.00000000    0.73333333
    0.33333333    0.00000000    0.80000000
    0.33333333    0.00000000    0.86666667
    0.33333333    0.00000000    0.93333333
    0.33333333    0.06666667    0.00000000
    0.33333333    0.06666667    0.06666667
    0.33333333    0.06666667    0.13333333
    0.33333333    0.06666667    0.20000000
    0.33333333    0.06666667    0.26666667
    0.33333333    0.06666667    0.33333333
    0.33333333    0.06666667    0.40000000
    0.33333333    0.06666667    0.46666667
    0.33333333    0.06666667    0.53333333
    0.33333333    0.06666667    0.60000000
    0.33333333    0.06666667    0.66666667
    0.33333333    0.06666667    0.73333333
    0.33333333    0.06666667    0.80000000
    0.33333333    0.06666667    0.86666667
    0.33333333    0.06666667    0.93333333
    0.33333333    0.13333333    0.00000000
    0.33333333    0.13333333    0.06666667
    0.33333333    0.13333333    0.13333333
    0.33333333    0.13333333    0.20000000
    0.33333333    0.13333333    0.26666667
    0.33333333    0.13333333    0.33333333
    0.33333333    0.13333333    0.40000000
    0.33333333    0.13333333    0.46666667
    0.33333333    0.13333333    0.53333333
    0.33333333    0.13333333    0.60000000
    0.33333333    0.13333333    0.66666667
    0.33333333    0.13333333    0.73333333
    0.33333333    0.13333333    0.80000000
    0.33333333    0.13333333    0.86666667
    0.33333333    0.13333333    0.93333333
    0.33333333    0.20000000    0.00000000
    0.33333333    0.20000000    0.06666667
    0.33333333    0.20000000    0.13333333
    0.33333333    0.20000000    0.20000000
    0.33333333    0.20000000    0.26666667
    0.33333333    0.20000000    0.33333333
    0.33333333    0.20000000    0.40000000
    0.33333333    0.20000000    0.46666667
    0.33333333    0.20000000    0.53333333
    0.33333333    0.20000000    0.60000000
    0.33333333    0.20000000    0.66666667
    0.33333333    0.20000000    0.73333333
    0.33333333    0.20000000    0.80000000
    0.33333333    0.20000000    0.86666667
    0.33333333    0.20000000    0.93333333
    0.33333333    0.26666667    0.00000000
    0.33333333    0.26666667    0.06666667
    0.33333333    0.26666667    0.13333333
    0.33333333    0.26666667    0.20000000
    0.33333333    0.26666667    0.26666667
    0.33333333    0.26666667    0.33333333
    0.33333333    0.26666667    0.40000000
    0.33333333    0.26666667    0.46666667
    0.33333333    0.26666667    0.53333333
    0.33333333    0.26666667    0.60000000
    0.33333333    0.26666667    0.66666667
    0.33333333    0.26666667    0.73333333
    0.33333333    0.26666667    0.80000000
    0.33333333    0.26666667    0.86666667
    0.33333333    0.26666667    0.93333333
    0.33333333    0.33333333    0.00000000
    0.33333333    0.33333333    0.06666667
    0.33333333    0.33333333    0.13333333
    0.33333333    0.33333333    0.20000000
    0.33333333    0.33333333    0.26666667
    0.33333333    0.33333333    0.33333333
    0.33333333    0.33333333    0.40000000
    0.33333333    0.33333333    0.46666667
    0.33333333    0.33333333    0.53333333
    0.33333333    0.33333333    0.60000000
    0.33333333    0.33333333    0.66666667
    0.33333333    0.33333333    0.73333333
    0.33333333    0.33333333    0.80000000
    0.33333333    0.33333333    0.86666667
    0.33333333    0.33333333    0.93333333
    0.33333333    0.40000000    0.00000000
    0.33333333    0.40000000    0.06666667
    0.33333333    0.40000000    0.13333333
    0.33333333    0.40000000    0.20000000
    0.33333333    0.40000000    0.26666667
    0.33333333    0.40000000    0.33333333
    0.33333333    0.40000000    0.40000000
    0.33333333    0.40000000    0.46666667
    0.33333333    0.40000000    0.53333333
    0.33333333    0.40000000    0.60000000
    0.33333333    0.40000000    0.66666667
    0.33333333    0.40000000    0.73333333
    0.33333333    0.40000000    0.80000000
    0.33333333    0.40000000    0.86666667
    0.33333333    0.40000000    0.93333333
    0.33333333    0.46666667    0.00000000
    0.33333333    0.46666667    0.06666667
    0.33333333    0.46666667    0.13333333
    0.33333333    0.46666667    0.20000000
    0.33333333    0.46666667    0.26666667
    0.33333333    0.46666667    0.33333333
    0.33333333    0.46666667    0.40000000
    0.33333333    0.46666667    0.46666667
    0.33333333    0.46666667    0.53333333
    0.33333333    0.46666667    0.60000000
    0.33333333    0.46666667    0.66666667
    0.33333333    0.46666667    0.73333333
    0.33333333    0.46666667    0.80000000
    0.33333333    0.46666667    0.86666667
    0.33333333    0.46666667    0.93333333
    0.33333333    0.53333333    0.00000000
    0.33333333    0.53333333    0.06666667
    0.33333333    0.53333333    0.13333333
    0.33333333    0.53333333    0.20000000
    0.33333333    0.53333333    0.26666667
    0.33333333    0.53333333    0.33333333
    0.33333333    0.53333333    0.40000000
    0.33333333    0.53333333    0.46666667
    0.33333333    0.53333333    0.53333333
    0.33333333    0.53333333    0.60000000
    0.33333333    0.53333333    0.66666667
    0.33333333    0.53333333    0.73333333
    0.33333333    0.53333333    0.80000000
    0.33333333    0.53333333    0.86666667
    0.33333333    0.53333333    0.93333333
    0.33333333    0.60000000    0.00000000
    0.33333333    0.60000000    0.06666667
    0.33333333    0.60000000    0.13333333
    0.33333333    0.60000000    0.20000000
    0.33333333    0.60000000    0.26666667
    0.33333333    0.60000000    0.33333333
    0.33333333    0.60000000    0.40000000
    0.33333333    0.60000000    0.46666667
    0.33333333    0.60000000    0.53333333
    0.33333333    0.60000000    0.60000000
    0.33333333    0.60000000    0.66666667
    0.33333333    0.60000000    0.73333333
    0.33333333    0.60000000    0.80000000
    0.33333333    0.60000000    0.86666667
    0.33333333    0.60000000    0.93333333
    0.33333333    0.66666667    0.00000000
    0.33333333    0.66666667    0.06666667
    0.33333333    0.66666667    0.13333333
    0.33333333    0.66666667    0.20000000
    0.33333333    0.66666667    0.26666667
    0.33333333    0.66666667    0.33333333
    0.33333333    0.66666667    0.40000000
    0.33333333    0.66666667    0.46666667
    0.33333333    0.66666667    0.53333333
    0.33333333    0.66666667    0.60000000
    0.33333333    0.66666667    0.66666667
    0.33333333    0.66666667    0.73333333
    0.33333333    0.66666667    0.80000000
    0.33333333    0.66666667    0.86666667
    0.33333333    0.66666667    0.93333333
    0.33333333    0.73333333    0.00000000
    0.33333333    0.73333333    0.06666667
    0.33333333    0.73333333    0.13333333
    0.33333333    0.73333333    0.20000000
    0.33333333    0.73333333    0.26666667
    0.33333333    0.73333333    0.33333333
    0.33333333    0.73333333    0.40000000
    0.33333333    0.73333333    0.46666667
    0.33333333    0.73333333    0.53333333
    0.33333333    0.73333333    0.60000000
    0.33333333    0.73333333    0.66666667
    0.33333333    0.73333333    0.73333333
    0.33333333    0.73333333    0.80000000
    0.33333333    0.73333333    0.86666667
    0.33333333    0.73333333    0.93333333
    0.33333333    0.80000000    0.00000000
    0.33333333    0.80000000    0.06666667
    0.33333333    0.80000000    0.13333333
    0.33333333    0.80000000    0.20000000
    0.33333333    0.80000000    0.26666667
    0.33333333    0.80000000    0.33333333
    0.33333333    0.80000000    0.40000000
    0.33333333    0.80000000    0.46666667
    0.33333333    0.80000000    0.53333333
    0.33333333    0.80000000    0.60000000
    0.33333333    0.80000000    0.66666667
    0.33333333    0.80000000    0.73333333
    0.33333333    0.80000000    0.80000000
    0.33333333    0.80000000    0.86666667
    0.33333333    0.80000000    0.93333333
    0.33333333    0.86666667    0.00000000
    0.33333333    0.86666667    0.06666667
    0.33333333    0.86666667    0.13333333
    0.33333333    0.86666667    0.20000000
    0.33333333    0.86666667    0.26666667
    0.33333333    0.86666667    0.33333333
    0.33333333    0.86666667    0.40000000
    0.33333333    0.86666667    0.46666667
    0.33333333    0.86666667    0.53333333
    0.33333333    0.86666667    0.60000000
    0.33333333    0.86666667    0.66666667
    0.33333333    0.86666667    0.73333333
    0.33333333    0.86666667    0.80000000
    0.33333333    0.86666667    0.86666667
    0.33333333    0.86666667    0.93333333
    0.33333333    0.93333333    0.00000000
    0.33333333    0.93333333    0.06666667
    0.33333333    0.93333333    0.13333333
    0.33333333    0.93333333    0.20000000
    0.33333333    0.93333333    0.26666667
    0.33333333    0.93333333    0.33333333
    0.33333333    0.93333333    0.40000000
    0.33333333    0.93333333    0.46666667
    0.33333333    0.93333333    0.53333333
    0.33333333    0.93333333    0.60000000
    0.33333333    0.93333333    0.66666667
    0.33333333    0.93333333    0.73333333
    0.33333333    0.93333333    0.80000000
    0.33333333    0.93333333    0.86666667
    0.33333333    0.93333333    0.93333333
    0.40000000    0.00000000    0.00000000
    0.40000000    0.00000000    0.06666667
    0.40000000    0.00000000    0.13333333
    0.40000000    0.00000000    0.20000000
    0.40000000    0.00000000    0.26666667
    0.40000000    0.00000000    0.33333333
    0.40000000    0.00000000    0.40000000
    0.40000000    0.00000000    0.46666667
    0.40000000    0.00000000    0.53333333
    0.40000000    0.00000000    0.60000000
    0.40000000    0.00000000    0.66666667
    0.40000000    0.00000000    0.73333333
    0.40000000    0.00000000    0.80000000
    0.40000000    0.00000000    0.86666667
    0.40000000    0.00000000    0.93333333
    0.40000000    0.06666667    0.00000000
    0.40000000    0.06666667    0.06666667
    0.40000000    0.06666667    0.13333333
    0.40000000    0.06666667    0.20000000
    0.40000000    0.06666667    0.26666667
    0.40000000    0.06666667    0.33333333
    0.40000000    0.06666667    0.40000000
    0.40000000    0.06666667    0.46666667
    0.40000000    0.06666667    0.53333333
    0.40000000    0.06666667    0.60000000
    0.40000000    0.06666667    0.66666667
    0.40000000    0.06666667    0.73333333
    0.40000000    0.06666667    0.80000000
    0.40000000    0.06666667    0.86666667
    0.40000000    0.06666667    0.93333333
    0.40000000    0.13333333    0.00000000
    0.40000000    0.13333333    0.06666667
    0.40000000    0.13333333    0.13333333
    0.40000000    0.13333333    0.20000000
    0.40000000    0.13333333    0.26666667
    0.40000000    0.13333333    0.33333333
    0.40000000    0.13333333    0.40000000
    0.40000000    0.13333333    0.46666667
    0.40000000    0.13333333    0.53333333
    0.40000000    0.13333333    0.60000000
    0.40000000    0.13333333    0.66666667
    0.40000000    0.13333333    0.73333333
    0.40000000    0.13333333    0.80000000
    0.40000000    0.13333333    0.86666667
    0.40000000    0.13333333    0.93333333
    0.40000000    0.20000000    0.00000000
    0.40000000    0.20000000    0.06666667
    0.40000000    0.20000000    0.13333333
    0.40000000    0.20000000    0.20000000
    0.40000000    0.20000000    0.26666667
    0.40000000    0.20000000    0.33333333
    0.40000000    0.20000000    0.40000000
    0.40000000    0.20000000    0.46666667
    0.40000000    0.20000000    0.53333333
    0.40000000    0.20000000    0.60000000
    0.40000000    0.20000000    0.66666667
    0.40000000    0.20000000    0.73333333
    0.40000000    0.20000000    0.80000000
    0.40000000    0.20000000    0.86666667
    0.40000000    0.20000000    0.93333333
    0.40000000    0.26666667    0.00000000
    0.40000000    0.26666667    0.06666667
    0.40000000    0.26666667    0.13333333
    0.40000000    0.26666667    0.20000000
    0.40000000    0.26666667    0.26666667
    0.40000000    0.26666667    0.33333333
    0.40000000    0.26666667    0.40000000
    0.40000000    0.26666667    0.46666667
    0.40000000    0.26666667    0.53333333
    0.40000000    0.26666667    0.60000000
    0.40000000    0.26666667    0.66666667
    0.40000000    0.26666667    0.73333333
    0.40000000    0.26666667    0.80000000
    0.40000000    0.26666667    0.86666667
    0.40000000    0.26666667    0.93333333
    0.40000000    0.33333333    0.00000000
    0.40000000    0.33333333    0.06666667
    0.40000000    0.33333333    0.13333333
    0.40000000    0.33333333    0.20000000
    0.40000000    0.33333333    0.26666667
    0.40000000    0.33333333    0.33333333
    0.40000000    0.33333333    0.40000000
    0.40000000    0.33333333    0.46666667
    0.40000000    0.33333333    0.53333333
    0.40000000    0.33333333    0.60000000
    0.40000000    0.33333333    0.66666667
    0.40000000    0.33333333    0.73333333
    0.40000000    0.33333333    0.80000000
    0.40000000    0.33333333    0.86666667
    0.40000000    0.33333333    0.93333333
    0.40000000    0.40000000    0.00000000
    0.40000000    0.40000000    0.06666667
    0.40000000    0.40000000    0.13333333
    0.40000000    0.40000000    0.20000000
    0.40000000    0.40000000    0.26666667
    0.40000000    0.40000000    0.33333333
    0.40000000    0.40000000    0.40000000
    0.40000000    0.40000000    0.46666667
    0.40000000    0.40000000    0.53333333
    0.40000000    0.40000000    0.60000000
    0.40000000    0.40000000    0.66666667
    0.40000000    0.40000000    0.73333333
    0.40000000    0.40000000    0.80000000
    0.40000000    0.40000000    0.86666667
    0.40000000    0.40000000    0.93333333
    0.40000000    0.46666667    0.00000000
    0.40000000    0.46666667    0.06666667
    0.40000000    0.46666667    0.13333333
    0.40000000    0.46666667    0.20000000
    0.40000000    0.46666667    0.26666667
    0.40000000    0.46666667    0.33333333
    0.40000000    0.46666667    0.40000000
    0.40000000    0.46666667    0.46666667
    0.40000000    0.46666667    0.53333333
    0.40000000    0.46666667    0.60000000
    0.40000000    0.46666667    0.66666667
    0.40000000    0.46666667    0.73333333
    0.40000000    0.46666667    0.80000000
    0.40000000    0.46666667    0.86666667
    0.40000000    0.46666667    0.93333333
    0.40000000    0.53333333    0.00000000
    0.40000000    0.53333333    0.06666667
    0.40000000    0.53333333    0.13333333
    0.40000000    0.53333333    0.20000000
    0.40000000    0.53333333    0.26666667
    0.40000000    0.53333333    0.33333333
    0.40000000    0.53333333    0.40000000
    0.40000000    0.53333333    0.46666667
    0.40000000    0.53333333    0.53333333
    0.40000000    0.53333333    0.60000000
    0.40000000    0.53333333    0.66666667
    0.40000000    0.53333333    0.73333333
    0.40000000    0.53333333    0.80000000
    0.40000000    0.53333333    0.86666667
    0.40000000    0.53333333    0.93333333
    0.40000000    0.60000000    0.00000000
    0.40000000    0.60000000    0.06666667
    0.40000000    0.60000000    0.13333333
    0.40000000    0.60000000    0.20000000
    0.40000000    0.60000000    0.26666667
    0.40000000    0.60000000    0.33333333
    0.40000000    0.60000000    0.40000000
    0.40000000    0.60000000    0.46666667
    0.40000000    0.60000000    0.53333333
    0.40000000    0.60000000    0.60000000
    0.40000000    0.60000000    0.66666667
    0.40000000    0.60000000    0.73333333
    0.40000000    0.60000000    0.80000000
    0.40000000    0.60000000    0.86666667
    0.40000000    0.60000000    0.93333333
    0.40000000    0.66666667    0.00000000
    0.40000000    0.66666667    0.06666667
    0.40000000    0.66666667    0.13333333
    0.40000000    0.66666667    0.20000000
    0.40000000    0.66666667    0.26666667
    0.40000000    0.66666667    0.33333333
    0.40000000    0.66666667    0.40000000
    0.40000000    0.66666667    0.46666667
    0.40000000    0.66666667    0.53333333
    0.40000000    0.66666667    0.60000000
    0.40000000    0.66666667    0.66666667
    0.40000000    0.66666667    0.73333333
    0.40000000    0.66666667    0.80000000
    0.40000000    0.66666667    0.86666667
    0.40000000    0.66666667    0.93333333
    0.40000000    0.73333333    0.00000000
    0.40000000    0.73333333    0.06666667
    0.40000000    0.73333333    0.13333333
    0.40000000    0.73333333    0.20000000
    0.40000000    0.73333333    0.26666667
    0.40000000    0.73333333    0.33333333
    0.40000000    0.73333333    0.40000000
    0.40000000    0.73333333    0.46666667
    0.40000000    0.73333333    0.53333333
    0.40000000    0.73333333    0.60000000
    0.40000000    0.73333333    0.66666667
    0.40000000    0.73333333    0.73333333
    0.40000000    0.73333333    0.80000000
    0.40000000    0.73333333    0.86666667
    0.40000000    0.73333333    0.93333333
    0.40000000    0.80000000    0.00000000
    0.40000000    0.80000000    0.06666667
    0.40000000    0.80000000    0.13333333
    0.40000000    0.80000000    0.20000000
    0.40000000    0.80000000    0.26666667
    0.40000000    0.80000000    0.33333333
    0.40000000    0.80000000    0.40000000
    0.40000000    0.80000000    0.46666667
    0.40000000    0.80000000    0.53333333
    0.40000000    0.80000000    0.60000000
    0.40000000    0.80000000    0.66666667
    0.40000000    0.80000000    0.73333333
    0.40000000    0.80000000    0.80000000
    0.40000000    0.80000000    0.86666667
    0.40000000    0.80000000    0.93333333
    0.40000000    0.86666667    0.00000000
    0.40000000    0.86666667    0.06666667
    0.40000000    0.86666667    0.13333333
    0.40000000    0.86666667    0.20000000
    0.40000000    0.86666667    0.26666667
    0.40000000    0.86666667    0.33333333
    0.40000000    0.86666667    0.40000000
    0.40000000    0.86666667    0.46666667
    0.40000000    0.86666667    0.53333333
    0.40000000    0.86666667    0.60000000
    0.40000000    0.86666667    0.66666667
    0.40000000    0.86666667    0.73333333
    0.40000000    0.86666667    0.80000000
    0.40000000    0.86666667    0.86666667
    0.40000000    0.86666667    0.93333333
    0.40000000    0.93333333    0.00000000
    0.40000000    0.93333333    0.06666667
    0.40000000    0.93333333    0.13333333
    0.40000000    0.93333333    0.20000000
    0.40000000    0.93333333    0.26666667
    0.40000000    0.93333333    0.33333333
    0.40000000    0.93333333    0.40000000
    0.40000000    0.93333333    0.46666667
    0.40000000    0.93333333    0.53333333
    0.40000000    0.93333333    0.60000000
    0.40000000    0.93333333    0.66666667
    0.40000000    0.93333333    0.73333333
    0.40000000    0.93333333    0.80000000
    0.40000000    0.93333333    0.86666667
    0.40000000    0.93333333    0.93333333
    0.46666667    0.00000000    0.00000000
    0.46666667    0.00000000    0.06666667
    0.46666667    0.00000000    0.13333333
    0.46666667    0.00000000    0.20000000
    0.46666667    0.00000000    0.26666667
    0.46666667    0.00000000    0.33333333
    0.46666667    0.00000000    0.40000000
    0.46666667    0.00000000    0.46666667
    0.46666667    0.00000000    0.53333333
    0.46666667    0.00000000    0.60000000
    0.46666667    0.00000000    0.66666667
    0.46666667    0.00000000    0.73333333
    0.46666667    0.00000000    0.80000000
    0.46666667    0.00000000    0.86666667
    0.46666667    0.00000000    0.93333333
    0.46666667    0.06666667    0.00000000
    0.46666667    0.06666667    0.06666667
    0.46666667    0.06666667    0.13333333
    0.46666667    0.06666667    0.20000000
    0.46666667    0.06666667    0.26666667
    0.46666667    0.06666667    0.33333333
    0.46666667    0.06666667    0.40000000
    0.46666667    0.06666667    0.46666667
    0.46666667    0.06666667    0.53333333
    0.46666667    0.06666667    0.60000000
    0.46666667    0.06666667    0.66666667
    0.46666667    0.06666667    0.73333333
    0.46666667    0.06666667    0.80000000
    0.46666667    0.06666667    0.86666667
    0.46666667    0.06666667    0.93333333
    0.46666667    0.13333333    0.00000000
    0.46666667    0.13333333    0.06666667
    0.46666667    0.13333333    0.13333333
    0.46666667    0.13333333    0.20000000
    0.46666667    0.13333333    0.26666667
    0.46666667    0.13333333    0.33333333
    0.46666667    0.13333333    0.40000000
    0.46666667    0.13333333    0.46666667
    0.46666667    0.13333333    0.53333333
    0.46666667    0.13333333    0.60000000
    0.46666667    0.13333333    0.66666667
    0.46666667    0.13333333    0.73333333
    0.46666667    0.13333333    0.80000000
    0.46666667    0.13333333    0.86666667
    0.46666667    0.13333333    0.93333333
    0.46666667    0.20000000    0.00000000
    0.46666667    0.20000000    0.06666667
    0.46666667    0.20000000    0.13333333
    0.46666667    0.20000000    0.20000000
    0.46666667    0.20000000    0.26666667
    0.46666667    0.20000000    0.33333333
    0.46666667    0.20000000    0.40000000
    0.46666667    0.20000000    0.46666667
    0.46666667    0.20000000    0.53333333
    0.46666667    0.20000000    0.60000000
    0.46666667    0.20000000    0.66666667
    0.46666667    0.20000000    0.73333333
    0.46666667    0.20000000    0.80000000
    0.46666667    0.20000000    0.86666667
    0.46666667    0.20000000    0.93333333
    0.46666667    0.26666667    0.00000000
    0.46666667    0.26666667    0.06666667
    0.46666667    0.26666667    0.13333333
    0.46666667    0.26666667    0.20000000
    0.46666667    0.26666667    0.26666667
    0.46666667    0.26666667    0.33333333
    0.46666667    0.26666667    0.40000000
    0.46666667    0.26666667    0.46666667
    0.46666667    0.26666667    0.53333333
    0.46666667    0.26666667    0.60000000
    0.46666667    0.26666667    0.66666667
    0.46666667    0.26666667    0.73333333
    0.46666667    0.26666667    0.80000000
    0.46666667    0.26666667    0.86666667
    0.46666667    0.26666667    0.93333333
    0.46666667    0.33333333    0.00000000
    0.46666667    0.33333333    0.06666667
    0.46666667    0.33333333    0.13333333
    0.46666667    0.33333333    0.20000000
    0.46666667    0.33333333    0.26666667
    0.46666667    0.33333333    0.33333333
    0.46666667    0.33333333    0.40000000
    0.46666667    0.33333333    0.46666667
    0.46666667    0.33333333    0.53333333
    0.46666667    0.33333333    0.60000000
    0.46666667    0.33333333    0.66666667
    0.46666667    0.33333333    0.73333333
    0.46666667    0.33333333    0.80000000
    0.46666667    0.33333333    0.86666667
    0.46666667    0.33333333    0.93333333
    0.46666667    0.40000000    0.00000000
    0.46666667    0.40000000    0.06666667
    0.46666667    0.40000000    0.13333333
    0.46666667    0.40000000    0.20000000
    0.46666667    0.40000000    0.26666667
    0.46666667    0.40000000    0.33333333
    0.46666667    0.40000000    0.40000000
    0.46666667    0.40000000    0.46666667
    0.46666667    0.40000000    0.53333333
    0.46666667    0.40000000    0.60000000
    0.46666667    0.40000000    0.66666667
    0.46666667    0.40000000    0.73333333
    0.46666667    0.40000000    0.80000000
    0.46666667    0.40000000    0.86666667
    0.46666667    0.40000000    0.93333333
    0.46666667    0.46666667    0.00000000
    0.46666667    0.46666667    0.06666667
    0.46666667    0.46666667    0.13333333
    0.46666667    0.46666667    0.20000000
    0.46666667    0.46666667    0.26666667
    0.46666667    0.46666667    0.33333333
    0.46666667    0.46666667    0.40000000
    0.46666667    0.46666667    0.46666667
    0.46666667    0.46666667    0.53333333
    0.46666667    0.46666667    0.60000000
    0.46666667    0.46666667    0.66666667
    0.46666667    0.46666667    0.73333333
    0.46666667    0.46666667    0.80000000
    0.46666667    0.46666667    0.86666667
    0.46666667    0.46666667    0.93333333
    0.46666667    0.53333333    0.00000000
    0.46666667    0.53333333    0.06666667
    0.46666667    0.53333333    0.13333333
    0.46666667    0.53333333    0.20000000
    0.46666667    0.53333333    0.26666667
    0.46666667    0.53333333    0.33333333
    0.46666667    0.53333333    0.40000000
    0.46666667    0.53333333    0.46666667
    0.46666667    0.53333333    0.53333333
    0.46666667    0.53333333    0.60000000
    0.46666667    0.53333333    0.66666667
    0.46666667    0.53333333    0.73333333
    0.46666667    0.53333333    0.80000000
    0.46666667    0.53333333    0.86666667
    0.46666667    0.53333333    0.93333333
    0.46666667    0.60000000    0.00000000
    0.46666667    0.60000000    0.06666667
    0.46666667    0.60000000    0.13333333
    0.46666667    0.60000000    0.20000000
    0.46666667    0.60000000    0.26666667
    0.46666667    0.60000000    0.33333333
    0.46666667    0.60000000    0.40000000
    0.46666667    0.60000000    0.46666667
    0.46666667    0.60000000    0.53333333
    0.46666667    0.60000000    0.60000000
    0.46666667    0.60000000    0.66666667
    0.46666667    0.60000000    0.73333333
    0.46666667    0.60000000    0.80000000
    0.46666667    0.60000000    0.86666667
    0.46666667    0.60000000    0.93333333
    0.46666667    0.66666667    0.00000000
    0.46666667    0.66666667    0.06666667
    0.46666667    0.66666667    0.13333333
    0.46666667    0.66666667    0.20000000
    0.46666667    0.66666667    0.26666667
    0.46666667    0.66666667    0.33333333
    0.46666667    0.66666667    0.40000000
    0.46666667    0.66666667    0.46666667
    0.46666667    0.66666667    0.53333333
    0.46666667    0.66666667    0.60000000
    0.46666667    0.66666667    0.66666667
    0.46666667    0.66666667    0.73333333
    0.46666667    0.66666667    0.80000000
    0.46666667    0.66666667    0.86666667
    0.46666667    0.66666667    0.93333333
    0.46666667    0.73333333    0.00000000
    0.46666667    0.73333333    0.06666667
    0.46666667    0.73333333    0.13333333
    0.46666667    0.73333333    0.20000000
    0.46666667    0.73333333    0.26666667
    0.46666667    0.73333333    0.33333333
    0.46666667    0.73333333    0.40000000
    0.46666667    0.73333333    0.46666667
    0.46666667    0.73333333    0.53333333
    0.46666667    0.73333333    0.60000000
    0.46666667    0.73333333    0.66666667
    0.46666667    0.73333333    0.73333333
    0.46666667    0.73333333    0.80000000
    0.46666667    0.73333333    0.86666667
    0.46666667    0.73333333    0.93333333
    0.46666667    0.80000000    0.00000000
    0.46666667    0.80000000    0.06666667
    0.46666667    0.80000000    0.13333333
    0.46666667    0.80000000    0.20000000
    0.46666667    0.80000000    0.26666667
    0.46666667    0.80000000    0.33333333
    0.46666667    0.80000000    0.40000000
    0.46666667    0.80000000    0.46666667
    0.46666667    0.80000000    0.53333333
    0.46666667    0.80000000    0.60000000
    0.46666667    0.80000000    0.66666667
    0.46666667    0.80000000    0.73333333
    0.46666667    0.80000000    0.80000000
    0.46666667    0.80000000    0.86666667
    0.46666667    0.80000000    0.93333333
    0.46666667    0.86666667    0.00000000
    0.46666667    0.86666667    0.06666667
    0.46666667    0.86666667    0.13333333
    0.46666667    0.86666667    0.20000000
    0.46666667    0.86666667    0.26666667
    0.46666667    0.86666667    0.33333333
    0.46666667    0.86666667    0.40000000
    0.46666667    0.86666667    0.46666667
    0.46666667    0.86666667    0.53333333
    0.46666667    0.86666667    0.60000000
    0.46666667    0.86666667    0.66666667
    0.46666667    0.86666667    0.73333333
    0.46666667    0.86666667    0.80000000
    0.46666667    0.86666667    0.86666667
    0.46666667    0.86666667    0.93333333
    0.46666667    0.93333333    0.00000000
    0.46666667    0.93333333    0.06666667
    0.46666667    0.93333333    0.13333333
    0.46666667    0.93333333    0.20000000
    0.46666667    0.93333333    0.26666667
    0.46666667    0.93333333    0.33333333
    0.46666667    0.93333333    0.40000000
    0.46666667    0.93333333    0.46666667
    0.46666667    0.93333333    0.53333333
    0.46666667    0.93333333    0.60000000
    0.46666667    0.93333333    0.66666667
    0.46666667    0.93333333    0.73333333
    0.46666667    0.93333333    0.80000000
    0.46666667    0.93333333    0.86666667
    0.46666667    0.93333333    0.93333333
    0.53333333    0.00000000    0.00000000
    0.53333333    0.00000000    0.06666667
    0.53333333    0.00000000    0.13333333
    0.53333333    0.00000000    0.20000000
    0.53333333    0.00000000    0.26666667
    0.53333333    0.00000000    0.33333333
    0.53333333    0.00000000    0.40000000
    0.53333333    0.00000000    0.46666667
    0.53333333    0.00000000    0.53333333
    0.53333333    0.00000000    0.60000000
    0.53333333    0.00000000    0.66666667
    0.53333333    0.00000000    0.73333333
    0.53333333    0.00000000    0.80000000
    0.53333333    0.00000000    0.86666667
    0.53333333    0.00000000    0.93333333
    0.53333333    0.06666667    0.00000000
    0.53333333    0.06666667    0.06666667
    0.53333333    0.06666667    0.13333333
    0.53333333    0.06666667    0.20000000
    0.53333333    0.06666667    0.26666667
    0.53333333    0.06666667    0.33333333
    0.53333333    0.06666667    0.40000000
    0.53333333    0.06666667    0.46666667
    0.53333333    0.06666667    0.53333333
    0.53333333    0.06666667    0.60000000
    0.53333333    0.06666667    0.66666667
    0.53333333    0.06666667    0.73333333
    0.53333333    0.06666667    0.80000000
    0.53333333    0.06666667    0.86666667
    0.53333333    0.06666667    0.93333333
    0.53333333    0.13333333    0.00000000
    0.53333333    0.13333333    0.06666667
    0.53333333    0.13333333    0.13333333
    0.53333333    0.13333333    0.20000000
    0.53333333    0.13333333    0.26666667
    0.53333333    0.13333333    0.33333333
    0.53333333    0.13333333    0.40000000
    0.53333333    0.13333333    0.46666667
    0.53333333    0.13333333    0.53333333
    0.53333333    0.13333333    0.60000000
    0.53333333    0.13333333    0.66666667
    0.53333333    0.13333333    0.73333333
    0.53333333    0.13333333    0.80000000
    0.53333333    0.13333333    0.86666667
    0.53333333    0.13333333    0.93333333
    0.53333333    0.20000000    0.00000000
    0.53333333    0.20000000    0.06666667
    0.53333333    0.20000000    0.13333333
    0.53333333    0.20000000    0.20000000
    0.53333333    0.20000000    0.26666667
    0.53333333    0.20000000    0.33333333
[...]
  3287  3288      0   0   0
  3287  3062      0   0   0
  3287  3077      0   0   0
  3287  3272      0   0   0
  3287  3302      0   0   0
  3287   122      1   0   0
  3287   137      1   0   0
  3288  3287      0   0   0
  3288  3289      0   0   0
  3288  3063      0   0   0
  3288  3078      0   0   0
  3288  3273      0   0   0
  3288  3303      0   0   0
  3288   123      1   0   0
  3288   138      1   0   0
  3289  3288      0   0   0
  3289  3290      0   0   0
  3289  3064      0   0   0
  3289  3079      0   0   0
  3289  3274      0   0   0
  3289  3304      0   0   0
  3289   124      1   0   0
  3289   139      1   0   0
  3290  3289      0   0   0
  3290  3291      0   0   0
  3290  3065      0   0   0
  3290  3080      0   0   0
  3290  3275      0   0   0
  3290  3305      0   0   0
  3290   125      1   0   0
  3290   140      1   0   0
  3291  3290      0   0   0
  3291  3292      0   0   0
  3291  3066      0   0   0
  3291  3081      0   0   0
  3291  3276      0   0   0
  3291  3306      0   0   0
  3291   126      1   0   0
  3291   141      1   0   0
  3292  3291      0   0   0
  3292  3293      0   0   0
  3292  3067      0   0   0
  3292  3082      0   0   0
  3292  3277      0   0   0
  3292  3307      0   0   0
  3292   127      1   0   0
  3292   142      1   0   0
  3293  3292      0   0   0
  3293  3294      0   0   0
  3293  3068      0   0   0
  3293  3083      0   0   0
  3293  3278      0   0   0
  3293  3308      0   0   0
  3293   128      1   0   0
  3293   143      1   0   0
  3294  3293      0   0   0
  3294  3295      0   0   0
  3294  3069      0   0   0
  3294  3084      0   0   0
  3294  3279      0   0   0
  3294  3309      0   0   0
  3294   129      1   0   0
  3294   144      1   0   0
  3295  3294      0   0   0
  3295  3296      0   0   0
  3295  3070      0   0   0
  3295  3085      0   0   0
  3295  3280      0   0   0
  3295  3310      0   0   0
  3295   130      1   0   0
  3295   145      1   0   0
  3296  3295      0   0   0
  3296  3297      0   0   0
  3296  3071      0   0   0
  3296  3086      0   0   0
  3296  3281      0   0   0
  3296  3311      0   0   0
  3296   131      1   0   0
  3296   146      1   0   0
  3297  3296      0   0   0
  3297  3298      0   0   0
  3297  3072      0   0   0
  3297  3087      0   0   0
  3297  3282      0   0   0
  3297  3312      0   0   0
  3297   132      1   0   0
  3297   147      1   0   0
  3298  3297      0   0   0
  3298  3299      0   0   0
  3298  3073      0   0   0
  3298  3088      0   0   0
  3298  3283      0   0   0
  3298  3313      0   0   0
  3298   133      1   0   0
  3298   148      1   0   0
  3299  3298      0   0   0
  3299  3300      0   0   0
  3299  3074      0   0   0
  3299  3089      0   0   0
  3299  3284      0   0   0
  3299  3314      0   0   0
  3299   134      1   0   0
  3299   149      1   0   0
  3300  3299      0   0   0
  3300  3286      0   0   1
  3300  3075      0   0   0
  3300  3090      0   0   0
  3300  3285      0   0   0
  3300  3315      0   0   0
  3300   135      1   0   0
  3300   150      1   0   0
  3301  3302      0   0   0
  3301  3315      0   0  -1
  3301  3076      0   0   0
  3301  3091      0   0   0
  3301  3286      0   0   0
  3301  3316      0   0   0
  3301   136      1   0   0
  3301   151      1   0   0
  3302  3301      0   0   0
  3302  3303      0   0   0
  3302  3077      0   0   0
  3302  3092      0   0   0
  3302  3287      0   0   0
  3302  3317      0   0   0
  3302   137      1   0   0
  3302   152      1   0   0
  3303  3302      0   0   0
  3303  3304      0   0   0
  3303  3078      0   0   0
  3303  3093      0   0   0
  3303  3288      0   0   0
  3303  3318      0   0   0
  3303   138      1   0   0
  3303   153      1   0   0
  3304  3303      0   0   0
  3304  3305      0   0   0
  3304  3079      0   0   0
  3304  3094      0   0   0
  3304  3289      0   0   0
  3304  3319      0   0   0
  3304   139      1   0   0
  3304   154      1   0   0
  3305  3304      0   0   0
  3305  3306      0   0   0
  3305  3080      0   0   0
  3305  3095      0   0   0
  3305  3290      0   0   0
  3305  3320      0   0   0
  3305   140      1   0   0
  3305   155      1   0   0
  3306  3305      0   0   0
  3306  3307      0   0   0
  3306  3081      0   0   0
  3306  3096      0   0   0
  3306  3291      0   0   0
  3306  3321      0   0   0
  3306   141      1   0   0
  3306   156      1   0   0
  3307  3306      0   0   0
  3307  3308      0   0   0
  3307  3082      0   0   0
  3307  3097      0   0   0
  3307  3292      0   0   0
  3307  3322      0   0   0
  3307   142      1   0   0
  3307   157      1   0   0
  3308  3307      0   0   0
  3308  3309      0   0   0
  3308  3083      0   0   0
  3308  3098      0   0   0
  3308  3293      0   0   0
  3308  3323      0   0   0
  3308   143      1   0   0
  3308   158      1   0   0
  3309  3308      0   0   0
  3309  3310      0   0   0
  3309  3084      0   0   0
  3309  3099      0   0   0
  3309  3294      0   0   0
  3309  3324      0   0   0
  3309   144      1   0   0
  3309   159      1   0   0
  3310  3309      0   0   0
  3310  3311      0   0   0
  3310  3085      0   0   0
  3310  3100      0   0   0
  3310  3295      0   0   0
  3310  3325      0   0   0
  3310   145      1   0   0
  3310   160      1   0   0
  3311  3310      0   0   0
  3311  3312      0   0   0
  3311  3086      0   0   0
  3311  3101      0   0   0
  3311  3296      0   0   0
  3311  3326      0   0   0
  3311   146      1   0   0
  3311   161      1   0   0
  3312  3311      0   0   0
  3312  3313      0   0   0
  3312  3087      0   0   0
  3312  3102      0   0   0
  3312  3297      0   0   0
  3312  3327      0   0   0
  3312   147      1   0   0
  3312   162      1   0   0
  3313  3312      0   0   0
  3313  3314      0   0   0
  3313  3088      0   0   0
  3313  3103      0   0   0
  3313  3298      0   0   0
  3313  3328      0   0   0
  3313   148      1   0   0
  3313   163      1   0   0
  3314  3313      0   0   0
  3314  3315      0   0   0
  3314  3089      0   0   0
  3314  3104      0   0   0
  3314  3299      0   0   0
  3314  3329      0   0   0
  3314   149      1   0   0
  3314   164      1   0   0
  3315  3314      0   0   0
  3315  3301      0   0   1
  3315  3090      0   0   0
  3315  3105      0   0   0
  3315  3300      0   0   0
  3315  3330      0   0   0
  3315   150      1   0   0
  3315   165      1   0   0
  3316  3317      0   0   0
  3316  3330      0   0  -1
  3316  3091      0   0   0
  3316  3106      0   0   0
  3316  3301      0   0   0
  3316  3331      0   0   0
  3316   151      1   0   0
  3316   166      1   0   0
  3317  3316      0   0   0
  3317  3318      0   0   0
  3317  3092      0   0   0
  3317  3107      0   0   0
  3317  3302      0   0   0
  3317  3332      0   0   0
  3317   152      1   0   0
  3317   167      1   0   0
  3318  3317      0   0   0
  3318  3319      0   0   0
  3318  3093      0   0   0
  3318  3108      0   0   0
  3318  3303      0   0   0
  3318  3333      0   0   0
  3318   153      1   0   0
  3318   168      1   0   0
  3319  3318      0   0   0
  3319  3320      0   0   0
  3319  3094      0   0   0
  3319  3109      0   0   0
  3319  3304      0   0   0
  3319  3334      0   0   0
  3319   154      1   0   0
  3319   169      1   0   0
  3320  3319      0   0   0
  3320  3321      0   0   0
  3320  3095      0   0   0
  3320  3110      0   0   0
  3320  3305      0   0   0
  3320  3335      0   0   0
  3320   155      1   0   0
  3320   170      1   0   0
  3321  3320      0   0   0
  3321  3322      0   0   0
  3321  3096      0   0   0
  3321  3111      0   0   0
  3321  3306      0   0   0
  3321  3336      0   0   0
  3321   156      1   0   0
  3321   171      1   0   0
  3322  3321      0   0   0
  3322  3323      0   0   0
  3322  3097      0   0   0
  3322  3112      0   0   0
  3322  3307      0   0   0
  3322  3337      0   0   0
  3322   157      1   0   0
  3322   172      1   0   0
  3323  3322      0   0   0
  3323  3324      0   0   0
  3323  3098      0   0   0
  3323  3113      0   0   0
  3323  3308      0   0   0
  3323  3338      0   0   0
  3323   158      1   0   0
  3323   173      1   0   0
  3324  3323      0   0   0
  3324  3325      0   0   0
  3324  3099      0   0   0
  3324  3114      0   0   0
  3324  3309      0   0   0
  3324  3339      0   0   0
  3324   159      1   0   0
  3324   174      1   0   0
  3325  3324      0   0   0
  3325  3326      0   0   0
  3325  3100      0   0   0
  3325  3115      0   0   0
  3325  3310      0   0   0
  3325  3340      0   0   0
  3325   160      1   0   0
  3325   175      1   0   0
  3326  3325      0   0   0
  3326  3327      0   0   0
  3326  3101      0   0   0
  3326  3116      0   0   0
  3326  3311      0   0   0
  3326  3341      0   0   0
  3326   161      1   0   0
  3326   176      1   0   0
  3327  3326      0   0   0
  3327  3328      0   0   0
  3327  3102      0   0   0
  3327  3117      0   0   0
  3327  3312      0   0   0
  3327  3342      0   0   0
  3327   162      1   0   0
  3327   177      1   0   0
  3328  3327      0   0   0
  3328  3329      0   0   0
  3328  3103      0   0   0
  3328  3118      0   0   0
  3328  3313      0   0   0
  3328  3343      0   0   0
  3328   163      1   0   0
  3328   178      1   0   0
  3329  3328      0   0   0
  3329  3330      0   0   0
  3329  3104      0   0   0
  3329  3119      0   0   0
  3329  3314      0   0   0
  3329  3344      0   0   0
  3329   164      1   0   0
  3329   179      1   0   0
  3330  3329      0   0   0
  3330  3316      0   0   1
  3330  3105      0   0   0
  3330  3120      0   0   0
  3330  3315      0   0   0
  3330  3345      0   0   0
  3330   165      1   0   0
  3330   180      1   0   0
  3331  3332      0   0   0
  3331  3345      0   0  -1
  3331  3106      0   0   0
  3331  3121      0   0   0
  3331  3316      0   0   0
  3331  3346      0   0   0
  3331   166      1   0   0
  3331   181      1   0   0
  3332  3331      0   0   0
  3332  3333      0   0   0
  3332  3107      0   0   0
  3332  3122      0   0   0
  3332  3317      0   0   0
  3332  3347      0   0   0
  3332   167      1   0   0
  3332   182      1   0   0
  3333  3332      0   0   0
  3333  3334      0   0   0
  3333  3108      0   0   0
  3333  3123      0   0   0
  3333  3318      0   0   0
  3333  3348      0   0   0
  3333   168      1   0   0
  3333   183      1   0   0
  3334  3333      0   0   0
  3334  3335      0   0   0
  3334  3109      0   0   0
  3334  3124      0   0   0
  3334  3319      0   0   0
  3334  3349      0   0   0
  3334   169      1   0   0
  3334   184      1   0   0
  3335  3334      0   0   0
  3335  3336      0   0   0
  3335  3110      0   0   0
  3335  3125      0   0   0
  3335  3320      0   0   0
  3335  3350      0   0   0
  3335   170      1   0   0
  3335   185      1   0   0
  3336  3335      0   0   0
  3336  3337      0   0   0
  3336  3111      0   0   0
  3336  3126      0   0   0
  3336  3321      0   0   0
  3336  3351      0   0   0
  3336   171      1   0   0
  3336   186      1   0   0
  3337  3336      0   0   0
  3337  3338      0   0   0
  3337  3112      0   0   0
  3337  3127      0   0   0
  3337  3322      0   0   0
  3337  3352      0   0   0
  3337   172      1   0   0
  3337   187      1   0   0
  3338  3337      0   0   0
  3338  3339      0   0   0
  3338  3113      0   0   0
  3338  3128      0   0   0
  3338  3323      0   0   0
  3338  3353      0   0   0
  3338   173      1   0   0
  3338   188      1   0   0
  3339  3338      0   0   0
  3339  3340      0   0   0
  3339  3114      0   0   0
  3339  3129      0   0   0
  3339  3324      0   0   0
  3339  3354      0   0   0
  3339   174      1   0   0
  3339   189      1   0   0
  3340  3339      0   0   0
  3340  3341      0   0   0
  3340  3115      0   0   0
  3340  3130      0   0   0
  3340  3325      0   0   0
  3340  3355      0   0   0
  3340   175      1   0   0
  3340   190      1   0   0
  3341  3340      0   0   0
  3341  3342      0   0   0
  3341  3116      0   0   0
  3341  3131      0   0   0
  3341  3326      0   0   0
  3341  3356      0   0   0
  3341   176      1   0   0
  3341   191      1   0   0
  3342  3341      0   0   0
  3342  3343      0   0   0
  3342  3117      0   0   0
  3342  3132      0   0   0
  3342  3327      0   0   0
  3342  3357      0   0   0
  3342   177      1   0   0
  3342   192      1   0   0
  3343  3342      0   0   0
  3343  3344      0   0   0
  3343  3118      0   0   0
  3343  3133      0   0   0
  3343  3328      0   0   0
  3343  3358      0   0   0
  3343   178      1   0   0
  3343   193      1   0   0
  3344  3343      0   0   0
  3344  3345      0   0   0
  3344  3119      0   0   0
  3344  3134      0   0   0
  3344  3329      0   0   0
  3344  3359      0   0   0
  3344   179      1   0   0
  3344   194      1   0   0
  3345  3344      0   0   0
  3345  3331      0   0   1
  3345  3120      0   0   0
  3345  3135      0   0   0
  3345  3330      0   0   0
  3345  3360      0   0   0
  3345   180      1   0   0
  3345   195      1   0   0
  3346  3347      0   0   0
  3346  3360      0   0  -1
  3346  3121      0   0   0
  3346  3136      0   0   0
  3346  3331      0   0   0
  3346  3361      0   0   0
  3346   181      1   0   0
  3346   196      1   0   0
  3347  3346      0   0   0
  3347  3348      0   0   0
  3347  3122      0   0   0
  3347  3137      0   0   0
  3347  3332      0   0   0
  3347  3362      0   0   0
  3347   182      1   0   0
  3347   197      1   0   0
  3348  3347      0   0   0
  3348  3349      0   0   0
  3348  3123      0   0   0
  3348  3138      0   0   0
  3348  3333      0   0   0
  3348  3363      0   0   0
  3348   183      1   0   0
  3348   198      1   0   0
  3349  3348      0   0   0
  3349  3350      0   0   0
  3349  3124      0   0   0
  3349  3139      0   0   0
  3349  3334      0   0   0
  3349  3364      0   0   0
  3349   184      1   0   0
  3349   199      1   0   0
  3350  3349      0   0   0
  3350  3351      0   0   0
  3350  3125      0   0   0
  3350  3140      0   0   0
  3350  3335      0   0   0
  3350  3365      0   0   0
  3350   185      1   0   0
  3350   200      1   0   0
  3351  3350      0   0   0
  3351  3352      0   0   0
  3351  3126      0   0   0
  3351  3141      0   0   0
  3351  3336      0   0   0
  3351  3366      0   0   0
  3351   186      1   0   0
  3351   201      1   0   0
  3352  3351      0   0   0
  3352  3353      0   0   0
  3352  3127      0   0   0
  3352  3142      0   0   0
  3352  3337      0   0   0
  3352  3367      0   0   0
  3352   187      1   0   0
  3352   202      1   0   0
  3353  3352      0   0   0
  3353  3354      0   0   0
  3353  3128      0   0   0
  3353  3143      0   0   0
  3353  3338      0   0   0
  3353  3368      0   0   0
  3353   188      1   0   0
  3353   203      1   0   0
  3354  3353      0   0   0
  3354  3355      0   0   0
  3354  3129      0   0   0
  3354  3144      0   0   0
  3354  3339      0   0   0
  3354  3369      0   0   0
  3354   189      1   0   0
  3354   204      1   0   0
  3355  3354      0   0   0
  3355  3356      0   0   0
  3355  3130      0   0   0
  3355  3145      0   0   0
  3355  3340      0   0   0
  3355  3370      0   0   0
  3355   190      1   0   0
  3355   205      1   0   0
  3356  3355      0   0   0
  3356  3357      0   0   0
  3356  3131      0   0   0
  3356  3146      0   0   0
  3356  3341      0   0   0
  3356  3371      0   0   0
  3356   191      1   0   0
  3356   206      1   0   0
  3357  3356      0   0   0
  3357  3358      0   0   0
  3357  3132      0   0   0
  3357  3147      0   0   0
  3357  3342      0   0   0
  3357  3372      0   0   0
  3357   192      1   0   0
  3357   207      1   0   0
  3358  3357      0   0   0
  3358  3359      0   0   0
  3358  3133      0   0   0
  3358  3148      0   0   0
  3358  3343      0   0   0
  3358  3373      0   0   0
  3358   193      1   0   0
  3358   208      1   0   0
  3359  3358      0   0   0
  3359  3360      0   0   0
  3359  3134      0   0   0
  3359  3149      0   0   0
  3359  3344      0   0   0
  3359  3374      0   0   0
  3359   194      1   0   0
  3359   209      1   0   0
  3360  3359      0   0   0
  3360  3346      0   0   1
  3360  3135      0   0   0
  3360  3150      0   0   0
  3360  3345      0   0   0
  3360  3375      0   0   0
  3360   195      1   0   0
  3360   210      1   0   0
  3361  3362      0   0   0
  3361  3375      0   0  -1
  3361  3136      0   0   0
  3361  3346      0   0   0
  3361  2926      0   1   0
  3361  3151      0   1   0
  3361   196      1   0   0
  3361   211      1   0   0
  3362  3361      0   0   0
  3362  3363      0   0   0
  3362  3137      0   0   0
  3362  3347      0   0   0
  3362  2927      0   1   0
  3362  3152      0   1   0
  3362   197      1   0   0
  3362   212      1   0   0
  3363  3362      0   0   0
  3363  3364      0   0   0
  3363  3138      0   0   0
  3363  3348      0   0   0
  3363  2928      0   1   0
  3363  3153      0   1   0
  3363   198      1   0   0
  3363   213      1   0   0
  3364  3363      0   0   0
  3364  3365      0   0   0
  3364  3139      0   0   0
  3364  3349      0   0   0
  3364  2929      0   1   0
  3364  3154      0   1   0
  3364   199      1   0   0
  3364   214      1   0   0
  3365  3364      0   0   0
  3365  3366      0   0   0
  3365  3140      0   0   0
  3365  3350      0   0   0
  3365  2930      0   1   0
  3365  3155      0   1   0
  3365   200      1   0   0
  3365   215      1   0   0
  3366  3365      0   0   0
  3366  3367      0   0   0
  3366  3141      0   0   0
  3366  3351      0   0   0
  3366  2931      0   1   0
  3366  3156      0   1   0
  3366   201      1   0   0
  3366   216      1   0   0
  3367  3366      0   0   0
  3367  3368      0   0   0
  3367  3142      0   0   0
  3367  3352      0   0   0
  3367  2932      0   1   0
  3367  3157      0   1   0
  3367   202      1   0   0
  3367   217      1   0   0
  3368  3367      0   0   0
  3368  3369      0   0   0
  3368  3143      0   0   0
  3368  3353      0   0   0
  3368  2933      0   1   0
  3368  3158      0   1   0
  3368   203      1   0   0
  3368   218      1   0   0
  3369  3368      0   0   0
  3369  3370      0   0   0
  3369  3144      0   0   0
  3369  3354      0   0   0
  3369  2934      0   1   0
  3369  3159      0   1   0
  3369   204      1   0   0
  3369   219      1   0   0
  3370  3369      0   0   0
  3370  3371      0   0   0
  3370  3145      0   0   0
  3370  3355      0   0   0
  3370  2935      0   1   0
  3370  3160      0   1   0
  3370   205      1   0   0
  3370   220      1   0   0
  3371  3370      0   0   0
  3371  3372      0   0   0
  3371  3146      0   0   0
  3371  3356      0   0   0
  3371  2936      0   1   0
  3371  3161      0   1   0
  3371   206      1   0   0
  3371   221      1   0   0
  3372  3371      0   0   0
  3372  3373      0   0   0
  3372  3147      0   0   0
  3372  3357      0   0   0
  3372  2937      0   1   0
  3372  3162      0   1   0
  3372   207      1   0   0
  3372   222      1   0   0
  3373  3372      0   0   0
  3373  3374      0   0   0
  3373  3148      0   0   0
  3373  3358      0   0   0
  3373  2938      0   1   0
  3373  3163      0   1   0
  3373   208      1   0   0
  3373   223      1   0   0
  3374  3373      0   0   0
  3374  3375      0   0   0
  3374  3149      0   0   0
  3374  3359      0   0   0
  3374  2939      0   1   0
  3374  3164      0   1   0
  3374   209      1   0   0
  3374   224      1   0   0
  3375  3374      0   0   0
  3375  3361      0   0   1
  3375  3150      0   0   0
  3375  3360      0   0   0
  3375  2940      0   1   0
  3375  3165      0   1   0
  3375   210      1   0   0
  3375   225      1   0   0
end nnkpts

begin exclude_bands
   3
   1
   2
   3
end exclude_bands
